/*--------------------------------*- C++ -*----------------------------------*\
| =========                 |                                                 |
| \\      /  F ield         | OpenFOAM: The Open Source CFD Toolbox           |
|  \\    /   O peration     | Version:  2.3.0                                 |
|   \\  /    A nd           | Web:      www.OpenFOAM.org                      |
|    \\/     M anipulation  |                                                 |
\*---------------------------------------------------------------------------*/
FoamFile
{
    version     2.0;
    format      ascii;
    class       volScalarField;
    location    "0";
    object      F0;
}
// * * * * * * * * * * * * * * * * * * * * * * * * * * * * * * * * * * * * * //

dimensions      [0 0 0 0 0 0 0];

internalField   nonuniform List<scalar>
80000
(
0.6705245339856863
0.653564367281247
0.6446573873332108
0.6634040486893753
0.6311125574738436
0.6435756239794759
0.63751711261793
0.6778761976715837
0.6585272093305509
0.6690131742345716
0.6283336664308121
0.6774923341153551
0.6808839598896628
0.6639505375024508
0.6357491144755212
0.6376577753871886
0.6487966483143176
0.671403511351887
0.665383188179615
0.6546534314219388
0.622250524112775
0.6707290041954452
0.6748828233842752
0.6532046960493546
0.6808551818006245
0.6715724256620594
0.6717297473954995
0.6391414903693008
0.6493034351714991
0.6244065884652257
0.6633499857551429
0.6690199945864097
0.6184529946437707
0.6205698012711975
0.6267575320700149
0.6577953201859589
0.6751592571504063
0.6772443828082569
0.6643132896797972
0.6516902758177052
0.6558778674074484
0.659190238550458
0.6492098735792126
0.6158075218455239
0.6158944812964129
0.6239149890520517
0.6774750033233279
0.6701793192433798
0.6527213811700645
0.6445740067005041
0.6371864455566545
0.6343630856710715
0.6677994691500064
0.6821690524202948
0.6411017254441691
0.6339353805566428
0.6831891962760459
0.6660965602464428
0.6191920870802776
0.63762866614214
0.6695213732773901
0.6701482380304724
0.6485528371122901
0.6789650964019228
0.6597541051043591
0.6507277215261569
0.6450533039040626
0.6555467475896448
0.6779526572354949
0.6492928084078307
0.6281281338999057
0.6849407521724119
0.6711738131660532
0.6734483754246781
0.6591357252533163
0.6611484161598505
0.6611804829308763
0.6330684882887283
0.6326864530144922
0.669400793602517
0.6155145877815758
0.644416501320719
0.6375283867057493
0.6493699725308686
0.6765224977600934
0.6191508317352049
0.6552356363326953
0.6397648091452877
0.633817799094478
0.6167357680555623
0.6515299245482664
0.6736165390566754
0.641662265486912
0.6681069944567664
0.6261402383052832
0.6434271589024709
0.6705660292805647
0.6594348622506483
0.6358574359146075
0.6805471377683745
0.644397016619985
0.6288626215606958
0.6387577877732075
0.6678081069180593
0.6238493430186385
0.6780108418622479
0.6718095978367062
0.6409873976397193
0.6624785627196015
0.6701054867517806
0.615209818707356
0.624969772601233
0.654562899756103
0.6409875993631924
0.6614703007907057
0.6152297778695719
0.6341292986193126
0.628024449067851
0.6556044581567236
0.6803095069467728
0.6722656481495729
0.6195568273944754
0.6172172171645129
0.6728573824570655
0.6450155513751451
0.6388435711792033
0.6199163943087691
0.6808923357429439
0.6773851443272544
0.6299367425555423
0.6241042450108161
0.6438201550553404
0.6802959936191844
0.6172176469688613
0.656040797767313
0.6330939347048599
0.6205533366403828
0.6672529975592393
0.6240585091492137
0.6558381082435842
0.6303174180288345
0.6593693968039971
0.6372464796106923
0.6312475886611062
0.6672791699288901
0.6474368084363109
0.6357671932757327
0.6166760305497859
0.670197298531088
0.6589535625213963
0.6767943854305316
0.6266091542006971
0.6692937944287015
0.661582181051646
0.6372730796273469
0.6528278772849772
0.6581791300624651
0.6291042819021646
0.6641609779441453
0.6214441026158015
0.6737307213026116
0.6159486981215373
0.6514799598311595
0.6499422816314042
0.6840386298466699
0.6238870603245044
0.637811588145722
0.6620213531088912
0.644801686751161
0.6298658297996885
0.658233446811852
0.6728642551580728
0.630621466421281
0.6647010164326002
0.6410311603166579
0.6794117827167265
0.6263656988528457
0.6199423041777858
0.6251448510234623
0.6170082036368472
0.6576775311923586
0.6838238221336953
0.6275598795726679
0.6561202841288283
0.6607864418272864
0.6356049402107782
0.673459055426026
0.6812149281250643
0.655202430272892
0.641684200201417
0.6539817537511032
0.6251131306867634
0.6452958707247888
0.6412918916525796
0.6762693878867028
0.6584542478753526
0.6321393011227922
0.6668082292590708
0.6839872099884174
0.6635228004493898
0.6181903929666817
0.64016232406244
0.6575273260131265
0.665941199360855
0.6288382677020471
0.6774256835510425
0.6539233857225218
0.6790977087554624
0.6354424029154653
0.6383616360674726
0.6535714592930584
0.6457211570378594
0.6421171472640768
0.6484680755120068
0.6305091469457575
0.6807332495386084
0.6307776356144856
0.6699625749633213
0.6592709023433532
0.660189227336117
0.6674092880298195
0.6791580749934997
0.6332942715959642
0.6666510206789502
0.6465490645127969
0.6765749475775675
0.6387352333052363
0.6571477259199889
0.679394666352538
0.659537497060553
0.6443622929823876
0.6231126304537238
0.628807964332804
0.6535508059495463
0.6692161527396998
0.6665492254751882
0.6560895943800553
0.6638585632967822
0.6575429904404906
0.6812479226060904
0.6832655502315031
0.6533660247870119
0.6237107516781497
0.6711972082945094
0.6155641111802145
0.6712031600046324
0.6185054002207788
0.6574598473454112
0.6601205979888607
0.684921954426051
0.6380073224004027
0.6328326011547709
0.6696887692796649
0.6704662924159001
0.6150089081821695
0.6489924806857823
0.6693286408235408
0.6622496585973551
0.6442499404256241
0.6697414873580956
0.6241629863274932
0.6455985736673442
0.6618402694670735
0.6454062308086757
0.6616258459488227
0.6637814115510368
0.6418179532609691
0.6591080670177745
0.6627774746667523
0.6504085212733748
0.6766826461717512
0.656859533214247
0.6260182887193896
0.6237145853183572
0.6829203778428722
0.6508846786122574
0.6509979897689735
0.6222316102871736
0.6256447541832464
0.6238503345640334
0.6396578831029496
0.6396615357561637
0.6719344101914051
0.6820203200503214
0.6555693184603939
0.6363829705653361
0.6424204622965932
0.6224616280417326
0.6261725525187671
0.6334212690824872
0.6725239131602162
0.6525750182593284
0.6767792238884183
0.6260649330214114
0.6169979696108805
0.6272877348469541
0.6609980512505695
0.6553768034370575
0.6373751795557968
0.6327901445790542
0.6592036063953342
0.6754676616074016
0.6646366653459306
0.6726432383229191
0.6538684025548096
0.6315584010613133
0.616813051155241
0.6611499989303528
0.6540822137637696
0.6579672414490594
0.6696256180557423
0.6236813473138343
0.6726640371891949
0.6416894249783579
0.6699859833898144
0.6313381039449802
0.6299667053793201
0.6411349103284638
0.6439982105663934
0.6230955403031269
0.6561166148224019
0.6281216409733797
0.6752705252741795
0.6162197962198105
0.6611974336718004
0.6718671816371233
0.6580528248284161
0.6768056743521257
0.6686249305816162
0.6199292620922029
0.6491264669120314
0.6679953447429706
0.6455237398465377
0.6810763791398858
0.6193637290334839
0.628710046566753
0.6338787242608317
0.6615458098977269
0.6758520619225358
0.6308952869544012
0.6424059967143805
0.6581289404287267
0.6548209738401372
0.6557627184131621
0.6680335797598626
0.6770455364504406
0.6249140565577304
0.6528863302307149
0.6585263384933652
0.6242714067256883
0.6492317661419678
0.6286796117507178
0.6825067596014678
0.6458642035752711
0.6490821209140161
0.6544633442547789
0.6592748489616946
0.6448839513777296
0.645081179544669
0.6822779223147518
0.6217053805499964
0.6520587224253479
0.672734163546021
0.6278727286831075
0.6762056489972474
0.6402957776044734
0.6608469168391897
0.6363493429875287
0.653824354150566
0.6223798044558921
0.6463749059250306
0.6598161265828592
0.662408195442426
0.6479142167440748
0.6727251361273539
0.6843092621955871
0.6508950486321046
0.6497223878484524
0.6216202914970357
0.6318579123583
0.6584785427893642
0.651749429264898
0.6294616444899969
0.65768615682329
0.6402600461595578
0.6268340355093058
0.6636655896093201
0.675285624196406
0.6177399118032323
0.6462760577161379
0.6605358574650002
0.6714644000989118
0.6796345106140369
0.6803675079160105
0.6325768898993172
0.6364906240496635
0.6407100793708578
0.6616101738579088
0.6303446575666225
0.6678141472944219
0.6281102027760735
0.6821321716444839
0.6192913083253938
0.6534021946220504
0.6277022865426164
0.6683404283321592
0.6626175298038247
0.6298456096823867
0.6618071247961335
0.6282857674478852
0.6747971345586228
0.6715062363096503
0.6274145200718839
0.6234631387518541
0.6827443849221543
0.616263176889077
0.6468537803816208
0.6425927875442371
0.6769358880229175
0.6191856755194919
0.6372710679868333
0.6828084057779606
0.6429634474764414
0.6607099946380263
0.6607754634369113
0.6283973463916921
0.6724289543607567
0.6525143786860886
0.6418444853597871
0.6501348585785106
0.6757329326523597
0.636382422504713
0.675920751279808
0.6397038562652891
0.6847663990542177
0.6168851579390617
0.6190132015128464
0.635572777371703
0.6183332548393133
0.6456078502146854
0.6238702282983045
0.6505077661213359
0.6219115909806672
0.6201508732394678
0.6254158196885928
0.6675649078950059
0.6229493854465243
0.6784174250347523
0.6615802147330638
0.6831905574082799
0.6163340994455488
0.6819880697555899
0.6723443240622016
0.6813938992282109
0.6248581730780436
0.6344605423332662
0.6292548774700568
0.6458699661325926
0.6303263346956691
0.6758027824417158
0.6769304336721033
0.6707549638293131
0.6844930516464076
0.621204024666135
0.615883483788771
0.6363170114476339
0.6774350752205007
0.6463106995196783
0.6682298045334081
0.6462763542858434
0.6166388079461718
0.6282651125529892
0.6805265734154573
0.6574995960343459
0.6642385926583512
0.6171891091763972
0.6692312555000415
0.6279117203254041
0.6434015064540549
0.6331329314486726
0.6619019537165803
0.6779552937306259
0.622023781706027
0.6508894358155426
0.6831550094294288
0.6648039863548858
0.6564012825376462
0.615371980410605
0.6649564281117746
0.6805002893200544
0.6312878531224431
0.6847991957982994
0.6722250442487949
0.6316021149203075
0.6502005631174492
0.6792429480081528
0.6651671212443924
0.669099481954313
0.6360793182098499
0.6251472039205899
0.6765694458682959
0.6161331211177371
0.6288838624055542
0.6173598438646725
0.6690850033901179
0.6295413148553448
0.6655348156038732
0.6335011008427078
0.6242314518873022
0.6155776339966574
0.63249341165319
0.6279747032912661
0.6561750400434052
0.6506472619034698
0.663683077383151
0.6329951034535652
0.6469602189121495
0.6523064942671669
0.6626379244973362
0.6552143988467971
0.679030977045999
0.6224571203875042
0.6839309661540744
0.669652790498339
0.6729684804946021
0.6479017210352422
0.6834988096002048
0.6425131207429605
0.6756241351776074
0.6203613412034557
0.6460616198178334
0.6192545160050787
0.6249280428237816
0.6308066765027158
0.6161069416335756
0.6698218171974052
0.6408247187079172
0.6356507159813548
0.6358831667119047
0.672256541152477
0.6218718854501057
0.6473760762239615
0.6511667117669937
0.6206748132622162
0.6455988702252522
0.6811907420964652
0.6484557527226187
0.6466280851622352
0.6781989242101811
0.6217784981691314
0.6754039928812556
0.6452607092031555
0.6516186260946784
0.6280145015369081
0.6594281602603111
0.6698272801764232
0.6499833311066853
0.6767623314634836
0.6353058795925367
0.6548086347737562
0.6844556968067177
0.6641687084630129
0.6423846065779906
0.6169328361898969
0.6778576399753435
0.6159862787581705
0.6261742534510306
0.6797892374670216
0.6688847863931584
0.6421978990002775
0.6179098181440025
0.6586138122991727
0.6413851630056848
0.6595267366020109
0.6485996610760674
0.6483828609091692
0.6198719482034502
0.6593845619651648
0.6625677332807977
0.6310083743935897
0.6437471059668138
0.6578265150757858
0.6346757790466226
0.6259651815212945
0.6529082277784984
0.6810701264772615
0.6442565668768017
0.6263922713657888
0.6460223081199605
0.6828789749862079
0.6493866815979746
0.6471450497350503
0.6402677180529769
0.6393529535549529
0.6215468186863642
0.6334399920571991
0.6301025713946113
0.6796706314483121
0.6260294084704838
0.664910809669309
0.6640051816606843
0.681063788416352
0.6414775463215909
0.6424091501285574
0.6358881952754806
0.6736198321085054
0.6270307239159147
0.6451947521615111
0.6847727803703733
0.6567689009125128
0.6236906659482276
0.6165698901747161
0.6844833123913322
0.6811385853287997
0.6200349100704838
0.6771550155342639
0.6575825513126392
0.6209982678823827
0.6834936736474652
0.6747072586651891
0.6449850715639792
0.6774808671441903
0.6642266747254071
0.656131200854559
0.63197112647199
0.6205194081673099
0.642901087264188
0.6672932172051371
0.6279312321192521
0.6618755059054133
0.6789928235515298
0.6268944918812809
0.6311989856577165
0.6369279755886568
0.6707407026544827
0.6644511696523476
0.6686761595640153
0.6740178001031302
0.6456915261995944
0.6628275278213438
0.627397723678413
0.6599744175273915
0.673863551432383
0.6546114007160013
0.6396218392831756
0.6616141303092664
0.6613423578486156
0.6387158060947171
0.6497206190642091
0.647216176482526
0.6686034985772957
0.6301584401309783
0.6150916884764012
0.6171089542018131
0.6476462507558323
0.6375267279354155
0.6191394686946141
0.6733406123556651
0.6642502584877105
0.6754780769050954
0.6395680816648088
0.6665527958134647
0.649643672270524
0.6383290895435705
0.6415944173493142
0.6589987570656441
0.6728914271768234
0.6178937179128347
0.6381428676881866
0.6245645418002705
0.6547894379071045
0.6814355801289863
0.6569484603332905
0.6220445931024126
0.6838184200786281
0.6345326539569726
0.6387736697560487
0.6375376219776141
0.6394115482978828
0.6214538829375671
0.6671152357881315
0.6497791015929972
0.6530102860931514
0.6303895961371233
0.6639376090479967
0.6563870379441237
0.6233448232725056
0.6663739311873129
0.6749818032669008
0.6480257855026232
0.6508386238698438
0.6654310954510251
0.6450207855987287
0.6753574305517084
0.6606387483950351
0.6175731572743626
0.619044205443059
0.6313529180408459
0.6656608824707126
0.6777100721148006
0.6185342120488635
0.6610198639138313
0.6326222171755589
0.6427299648172871
0.6528474343105894
0.6556615528286827
0.6744082261817343
0.6353615733614152
0.6423311613722457
0.6522467922337036
0.6522774080620348
0.682552263937588
0.6814649906091375
0.6468653247263735
0.6485359165528224
0.6764657164997447
0.6705694506594357
0.6471145510602025
0.6301092328338095
0.630663011477131
0.6802212159715393
0.6348265335195713
0.6176638660990446
0.673092378144684
0.6452438026559912
0.6719876287841944
0.6844968553883697
0.6777121252007158
0.6634737039315295
0.6709773942226047
0.6650491493767219
0.6201221109893672
0.6552645915628804
0.6239998026681763
0.6388428710613493
0.651818562632102
0.6790477390389983
0.621293063126784
0.6762843476130738
0.6235999460181414
0.6307243540125589
0.6732417553306058
0.6587481738392429
0.6577475636530682
0.6449000422867
0.6691766105490686
0.657712436562077
0.6235675795489507
0.6776348821029279
0.6719788836267051
0.6636309028943885
0.6769197565981915
0.635058680089694
0.6784151077942626
0.6673757629966683
0.6846492286458423
0.6563715139286281
0.6791958824428608
0.6433163896923425
0.6480469195353566
0.6286860365055507
0.6519065458571285
0.6771523429657715
0.6831557116862007
0.6536391114269047
0.6379870015204612
0.6159148574285053
0.6278164034478081
0.6401961284717304
0.6705316988953316
0.657464804712673
0.6467456184960809
0.620433150463898
0.6665828621475471
0.640145554823051
0.6552611673472846
0.6656275245767611
0.6771092146253268
0.6510541966720365
0.6480684370366634
0.6786818177311158
0.6299494590518868
0.6818818232371637
0.6375066648176019
0.6668007021176205
0.6245143582001272
0.6651442815777092
0.6375230990369282
0.6778281381771765
0.6173249843118453
0.621132897284723
0.6459493839948203
0.6167108859557318
0.669216559422583
0.6697328280969101
0.6785920530043827
0.6179274813044786
0.6312874757231604
0.669647284272755
0.6385330991318113
0.6157741109985113
0.6815767813673865
0.6264897790910268
0.6772780149669511
0.6600587606695731
0.6810761861713391
0.6682934004381632
0.6221145525456498
0.6625108047060858
0.6758268965303513
0.6280995601631061
0.6587157496127559
0.6803693352847473
0.6813081646445311
0.6244277774276396
0.6264552766301372
0.6659157500985475
0.6163977671638505
0.6629278499541817
0.6824087408418544
0.680240720239555
0.670179019375568
0.6551297026290108
0.6666792090073025
0.6245365320120506
0.6647837565108611
0.6413526438032459
0.6665259020562306
0.6366368952131121
0.6215162396733704
0.6484310692500419
0.6638695574313809
0.619126811275738
0.6519696558705224
0.623364702633685
0.6499297651002538
0.6462445349613029
0.6595504622172277
0.6278296173263453
0.6556839212822396
0.6195205801272765
0.6306754235021981
0.647474703274712
0.6155037287266709
0.6209936894875047
0.6499588354544957
0.6426711636624077
0.6565518941100024
0.6162787998556152
0.6493130458529127
0.6766112698396862
0.6384270867693107
0.646780834401157
0.6425411113844124
0.6557319614356876
0.6278532675545487
0.6759427801802927
0.6653525248257552
0.6577504085738242
0.6441675003778822
0.6226285387549353
0.6550726746180385
0.6188238387263902
0.6278976339703619
0.6272185619897568
0.6381699162607319
0.6326425137555172
0.6271625058027634
0.6262084048287819
0.6179860509463735
0.6592499626757765
0.6764632845539296
0.6452353992888823
0.6646585186411635
0.6219393111918733
0.6511141143529882
0.6164382795649068
0.6587410974293925
0.6611899914763614
0.6568058959684087
0.6802520236322623
0.6419782179877944
0.629958816707535
0.6630983629957459
0.6473029736172005
0.6790013283891299
0.6218058613404251
0.6543678834806922
0.6176806029448764
0.6461143969208922
0.6392799075824009
0.6796892871888142
0.6349636844270117
0.6554339215706486
0.6239248224597871
0.6638947553533028
0.6460946391757085
0.6835759633849248
0.6751627989778306
0.6757450207645308
0.656937524678371
0.662685393085106
0.6522248773830082
0.6150413890752582
0.6563968934026966
0.6746678381944156
0.6346863195482726
0.6301103369177403
0.6714587922632296
0.6170083092280784
0.6756565230545357
0.626051762095974
0.6832638892441862
0.623733768458143
0.6451851831214559
0.6675753306691734
0.6728236885426269
0.6364082112955347
0.6322015968905057
0.6731418540212718
0.6638786574545057
0.6731911566856976
0.6514067849983335
0.6381953887337841
0.6374886426693431
0.6588747157210307
0.6292380033596796
0.6560926466108654
0.6616581361820052
0.6291555042615711
0.6243953621681513
0.6492612059442499
0.6281101130338258
0.6738859042047822
0.6802435462863018
0.6405805902228315
0.6756607602969007
0.631841288642645
0.6694283209353398
0.6791105465083158
0.6273591500933855
0.6584244387110738
0.643154660411464
0.6370208857686027
0.6627468250298447
0.6384323111212822
0.6458649061524846
0.6684085044287257
0.6638507535869524
0.6586211046348922
0.632425782670581
0.6193011214463859
0.6599219665169722
0.6686462196671933
0.651294830961548
0.6635951224666293
0.6691650113226981
0.6634210572362221
0.6679107755889906
0.671416081004772
0.6571176657412744
0.6579979171639749
0.653538087981804
0.6734421953570848
0.6448809722593375
0.6804316700902571
0.6732010254831384
0.6230185632565906
0.6795233375728176
0.6461190516217008
0.6461605178559922
0.631899243817233
0.6399950100679578
0.6476029859855138
0.6736919117916413
0.6715483835683466
0.661469011653009
0.6316681694663491
0.6756573874647162
0.6477339376632898
0.6327945596540641
0.6721227220226346
0.6820457621194929
0.6366063033171452
0.651694860488926
0.6720814593616222
0.6788188182727456
0.6467929599766351
0.6778040111179624
0.617253135444634
0.6645550161531562
0.621091370958046
0.6278915052220269
0.6413137970398284
0.6568796155661318
0.6573585056837381
0.6199486767689986
0.6223331584551011
0.6416736626806611
0.6570043169208151
0.6814145520202998
0.6745145146184963
0.6407525896927189
0.6822888207272381
0.6729297879809049
0.6648998783216666
0.6400577521210333
0.6534699281299082
0.6285581589845575
0.6593179790745873
0.6812556253005165
0.6494207715332971
0.6795780047599271
0.6621800585153496
0.6209558713774579
0.647647406432261
0.6750359278419662
0.6227862120896536
0.6298022910717559
0.6481828901062715
0.6174106590339284
0.6299131174595226
0.6833323340606471
0.659025361752385
0.6453746969126855
0.6345103934734783
0.6472194812811787
0.6435575962703164
0.6370408156756953
0.6792122050788613
0.676258747168168
0.6189831266673502
0.6471421607702623
0.6261451738811775
0.6476104260640574
0.6486283557626213
0.6377704483571407
0.6265990164622797
0.6500723426764656
0.6760259635979622
0.6251295102201685
0.6808544987382238
0.6352289221526894
0.6410254017461023
0.6411094887490845
0.6568893218839709
0.6496976014892741
0.6721302486392168
0.6313744364418354
0.6719987412819814
0.6581364384659556
0.6820350272814668
0.6569370111873204
0.6670029724163051
0.6751867082768142
0.6634138361561487
0.6264327493136417
0.6420164473151158
0.6632940407878309
0.6627724275714026
0.6166040714727754
0.6158921778909496
0.6596708520229843
0.6681495609606527
0.6439148363727407
0.6518460450191732
0.6693126081489913
0.6307171599001964
0.6518525328443001
0.6560923417880937
0.6470571883594505
0.6643145515179676
0.6457943973776783
0.682813223503481
0.6305828093668837
0.6703001904409116
0.6682829035042088
0.623393914116565
0.671003996158628
0.6191443071910611
0.6403531899565555
0.6740036394764757
0.6171284356750185
0.6419184102064799
0.6488987884272579
0.6246010563588338
0.6295984549663682
0.6228958196040589
0.6725731804430612
0.6533854228704002
0.6719915729320927
0.6300687337137413
0.6282692837312907
0.6465892946457412
0.6289612451009859
0.6738008781871987
0.6549025693282056
0.676243268929336
0.6652182122557676
0.6356165177246446
0.636163122410481
0.6217058424195565
0.6769715612780376
0.6212521993827471
0.6421195886515985
0.6464981471937016
0.6161275743118411
0.6616672178805052
0.6311633786946043
0.6376316534160098
0.6679812656295299
0.6332013966320089
0.6241764740248247
0.6708763503730863
0.6641255663113403
0.6669827435315921
0.6570730616056537
0.6579877743279744
0.6539698129711142
0.6670091119483202
0.666632910268889
0.6286837727908972
0.6599495286030952
0.6242464403847854
0.6507819372439249
0.6555182350291062
0.6494910925074092
0.6835572414523037
0.632742473654722
0.6665784514022821
0.6571913494629634
0.6243788963239225
0.6211991257367451
0.6405991926456911
0.672917480114742
0.6738904443962135
0.6521959636840329
0.6198883472541468
0.6270800234586902
0.6310861989984795
0.6420505230645615
0.6453033715869516
0.6618639298673463
0.6623662684934015
0.6611263278194912
0.6354498449433915
0.681522597003708
0.6370914466547981
0.6848692708730195
0.6781983877938198
0.6435392223303915
0.6338390724534536
0.6727721686699908
0.6578215602947082
0.6329031349776615
0.6429669852941565
0.6223538811150908
0.6307809968976348
0.6821332894810881
0.6393420423845735
0.6271518017508296
0.6828083406351664
0.6716171545226393
0.663692739349038
0.6256351494943367
0.6306976676148288
0.6543007559587071
0.6405680510060118
0.6387077558032259
0.658712926280638
0.6376943057685056
0.6531521924833295
0.6484159148713666
0.6192327116319172
0.6818995544971485
0.6617347963023614
0.6506069743842365
0.6674306776753638
0.6505117326173284
0.6272798242121154
0.6194412587528468
0.6704166655825812
0.6251525524290487
0.6417630761027693
0.6517008340534611
0.6682491297593116
0.6701729594333455
0.6482383397725491
0.6351728482897353
0.6232133610582182
0.6276689471069634
0.6694178285807078
0.6695951514459111
0.6269995851355772
0.6555695983768006
0.6231944365907529
0.6616639913392868
0.6639961843949846
0.6697904900714542
0.6178082806962842
0.6309292177978578
0.6416178333603145
0.6366489957242664
0.6152328458519248
0.6369378170537681
0.6512584494759075
0.6769542032331479
0.65547684222338
0.6300991438306492
0.6355425378809434
0.6593317385616022
0.6379428199679464
0.6217716135622288
0.6654108889626816
0.6282006749485403
0.6316358326073431
0.6478482541229066
0.6317922693509523
0.6771894434315084
0.6458757764135885
0.6569925617431449
0.6627309027895085
0.6168399640792173
0.6441514291226693
0.6705998111164628
0.6233936704946266
0.6300605704851627
0.6632478475754282
0.6620819923972676
0.6380952286373667
0.6587388375011103
0.6335139999174613
0.6631442680387796
0.6503026236516325
0.6625413637241854
0.662287775193502
0.6726430714081022
0.6250890384325632
0.6273781520780685
0.641664108890983
0.6184263895309239
0.6271684056593492
0.6701117170188666
0.6165441150738191
0.6232697227463618
0.6624519896853583
0.6185144095647128
0.6706518571507575
0.6314703795910196
0.6447731163642342
0.6826451799290205
0.6494886590635238
0.6773190537187208
0.6735601689742631
0.6578122099414669
0.676428139063932
0.6166706833617654
0.67186355052844
0.6227039291907266
0.6706248810752229
0.6461727724647988
0.6645128281897981
0.6344081650249178
0.657234343126892
0.6818949539471526
0.6680771788993207
0.6244900414356369
0.6307684727577352
0.6745582302112686
0.6286937765026416
0.6550000240256468
0.633788790909134
0.6297673218193437
0.6608647408536372
0.6496606059237089
0.6206650224469591
0.619752992080152
0.6424179314887462
0.6429770808103767
0.6291538861961108
0.6461088900722078
0.6619070209357951
0.6171747442562274
0.6735999293241774
0.6158794124321572
0.6275277160848451
0.6243205526859867
0.6427780786523313
0.680070015839559
0.6280163829542497
0.6778545329826602
0.6250235193255742
0.6356546510288089
0.6237043411994458
0.6576190572775702
0.6250825074709041
0.636049317843723
0.6150156635306219
0.6423578768448088
0.6846135396921129
0.6223715985165108
0.6333779137792426
0.6198151142622773
0.6803678188440313
0.6510512512888712
0.6321027795379188
0.6276432561691314
0.6318118788341085
0.6547396010455664
0.6553476510568474
0.6735019893853282
0.6622538906238615
0.6355771926035174
0.6360158588868088
0.6662595938773445
0.6669168316822426
0.6240322060926109
0.6342616977509845
0.6697673737882908
0.6556084493294453
0.6679175111168965
0.666444610333677
0.6260707454197465
0.6544592957005817
0.6716314471292355
0.6512603261088439
0.6796166271778221
0.6764413252038988
0.630244745278794
0.6753246486806666
0.620786086216044
0.6494449099638937
0.6566009497463068
0.6636521986449571
0.6569477232298685
0.6715308933632523
0.6679842107901914
0.6534028023451949
0.6156609458094695
0.6404872344309684
0.6514405356246858
0.6234526581530656
0.6707253203822323
0.6793818268629253
0.6260425897518826
0.6355770513647362
0.6546591692980043
0.6474714620568033
0.6168769260004826
0.616384379819551
0.6253579030808839
0.657943828239634
0.6358834374899175
0.6184414552757221
0.6344037870727264
0.6781809577605193
0.6598263398811395
0.6783565591283224
0.6560920778919235
0.6189640189469788
0.6388996398781566
0.6349442134124572
0.6420521394559398
0.6213126084575996
0.6587249544330833
0.6711675985304588
0.6705298227031791
0.6669019332944555
0.6744677821947012
0.6725625869798036
0.6157845001435197
0.6344141128718834
0.6248422913750165
0.6372891260482154
0.658254461747592
0.6676997708208352
0.67005659562026
0.6786129537987665
0.6784793699991509
0.6520607781704016
0.6177127118367967
0.6593644793973243
0.665062320235598
0.6592154122333518
0.6277169049868876
0.6776423717031357
0.6613159775178712
0.6646987954028835
0.6376883029301028
0.6476935621539344
0.6694562788631542
0.6156533613924025
0.6329616242998992
0.6303775323169731
0.6549852289379245
0.6759642938154911
0.6755056143941791
0.6361298385009179
0.65972084458628
0.665871663823053
0.6840479574951184
0.6761975312837657
0.6307223143328339
0.6773317643774714
0.6809430129770244
0.6563805723772465
0.6619247360553264
0.6701445943781152
0.6502931821986511
0.6473265983003627
0.6763899904193436
0.634621003885615
0.665806547154983
0.6761841991870003
0.6549431112329498
0.6302092512557991
0.6489882077275595
0.6845912701261059
0.6354531817385948
0.658827912740519
0.677730633440978
0.6441183912782574
0.6719672948452573
0.6302303102044773
0.6401005629440603
0.6627022702575445
0.6451375398887367
0.6166807845390899
0.6443398181953748
0.6214207033745965
0.6712130409622363
0.6685122624832929
0.6233851225047146
0.6688971203229794
0.6323380066618995
0.6558561243894958
0.623094577848636
0.6431257854811627
0.6322767264711859
0.6305973066334177
0.6690615236739547
0.6652280625787915
0.6718293016456157
0.6213549696035077
0.6234123422212767
0.6682790339245565
0.6598575300971354
0.6626784720558128
0.6753471090437353
0.6430958382718965
0.6285449327666819
0.6549845598894672
0.6811531961247892
0.6476701564758827
0.656098606452921
0.6257372213338165
0.6378837350568133
0.6620320555694357
0.6725461112764153
0.6233616389040562
0.6714314841920912
0.675903239536074
0.6640176278570052
0.6284752944668297