/*--------------------------------*- C++ -*----------------------------------*\
| =========                 |                                                 |
| \\      /  F ield         | OpenFOAM: The Open Source CFD Toolbox           |
|  \\    /   O peration     | Version:  2.3.0                                 |
|   \\  /    A nd           | Web:      www.OpenFOAM.org                      |
|    \\/     M anipulation  |                                                 |
\*---------------------------------------------------------------------------*/
FoamFile
{
    version     2.0;
    format      ascii;
    class       volScalarField;
    location    "0";
    object      F0;
}
// * * * * * * * * * * * * * * * * * * * * * * * * * * * * * * * * * * * * * //

dimensions      [0 0 0 0 0 0 0];

internalField   nonuniform List<scalar>
70300
(
0.39460784313725483
0.303921568627451
0.3240196078431373
0.4764705882352941
0.4892156862745098
0.4622549019607843
0.4946078431372549
0.5416666666666666
0.5558823529411765
0.5588235294117646
0.5686274509803921
0.5578431372549019
0.5455882352941176
0.5127450980392156
0.526470588235294
0.5235294117647058
0.528921568627451
0.5539215686274509
0.6098039215686275
0.5897058823529411
0.5745098039215687
0.475
0.3107843137254902
0.23431372549019605
0.22794117647058823
0.2784313725490196
0.39607843137254906
0.45196078431372555
0.41225490196078435
0.44901960784313727
0.4470588235294117
0.28921568627450983
0.2759803921568627
0.4406862745098039
0.5852941176470587
0.6083333333333334
0.627450980392157
0.6382352941176471
0.6446078431372548
0.5789215686274509
0.5098039215686274
0.453921568627451
0.4622549019607843
0.4514705882352941
0.42794117647058816
0.34509803921568627
0.28774509803921566
0.34656862745098044
0.35882352941176476
0.27941176470588236
0.15637254901960784
0.08235294117647059
0.0946078431372549
0.2019607843137255
0.24068627450980393
0.153921568627451
0.20343137254901958
0.28186274509803927
0.2602941176470588
0.23088235294117646
0.18284313725490198
0.3088235294117647
0.43333333333333335
0.4970588235294118
0.5495098039215687
0.6039215686274509
0.6014705882352941
0.5647058823529412
0.47794117647058826
0.4004901960784314
0.26666666666666666
0.2465686274509804
0.33039215686274515
0.4088235294117647
0.4406862745098039
0.4931372549019608
0.5362745098039216
0.5441176470588235
0.5259803921568628
0.4632352941176471
0.3166666666666667
0.2254901960784314
0.32892156862745103
0.4441176470588235
0.555392156862745
0.5024509803921569
0.3544117647058824
0.2485294117647059
0.2323529411764706
0.275
0.23480392156862745
0.31519607843137254
0.4259803921568628
0.38529411764705884
0.3338235294117647
0.2676470588235294
0.12205882352941176
0.0946078431372549
0.27598039215686276
0.5465686274509803
0.6245098039215686
0.5686274509803921
0.34705882352941175
0.061764705882352944
0.0
0.007352941176470588
0.06127450980392157
0.35833333333333334
0.41813725490196074
0.36519607843137253
0.3568627450980392
0.3681372549019608
0.35196078431372546
0.3313725490196079
0.40294117647058825
0.4857843137254902
0.38578431372549016
0.3137254901960784
0.3490196078431373
0.3465686274509805
0.22156862745098038
0.10833333333333332
0.08529411764705883
0.09068627450980392
0.08823529411764705
0.25245098039215685
0.35147058823529415
0.2769607843137255
0.371078431372549
0.4906862745098039
0.5245098039215687
0.4955882352941176
0.46666666666666673
0.38676470588235295
0.2431372549019608
0.1696078431372549
0.29754901960784313
0.36617647058823527
0.4009803921568627
0.48382352941176465
0.5921568627450982
0.6313725490196079
0.6573529411764706
0.5573529411764706
0.3431372549019608
0.1946078431372549
0.2019607843137255
0.3044117647058824
0.5122549019607843
0.6161764705882353
0.6063725490196078
0.5465686274509803
0.39705882352941174
0.38235294117647056
0.3936274509803921
0.1073529411764706
0.024999999999999998
0.00196078431372549
0.0838235294117647
0.2656862745098039
0.5784313725490196
0.6421568627450981
0.6279411764705883
0.6465686274509804
0.5
0.3127450980392157
0.4431372549019608
0.5313725490196077
0.5681372549019608
0.5303921568627451
0.5200980392156862
0.4691176470588236
0.3446078431372549
0.25245098039215685
0.17205882352941176
0.08872549019607842
0.11519607843137256
0.1892156862745098
0.22598039215686275
0.40490196078431373
0.5450980392156862
0.5617647058823529
0.5558823529411765
0.557843137254902
0.5705882352941176
0.553921568627451
0.4387254901960784
0.23186274509803925
0.28431372549019607
0.403921568627451
0.4558823529411765
0.4754901960784314
0.4529411764705882
0.4254901960784313
0.4220588235294117
0.5107843137254902
0.5754901960784313
0.6098039215686274
0.6058823529411764
0.5573529411764707
0.5313725490196078
0.532843137254902
0.4911764705882353
0.5147058823529411
0.5539215686274509
0.5313725490196078
0.4852941176470588
0.4446078431372549
0.5490196078431373
0.5779411764705881
0.6053921568627451
0.6053921568627451
0.5681372549019608
0.5245098039215687
0.46813725490196084
0.5078431372549019
0.5034313725490196
0.3975490196078431
0.37990196078431376
0.38088235294117645
0.32499999999999996
0.3093137254901961
0.41911764705882354
0.44901960784313727
0.44117647058823534
0.39754901960784317
0.3700980392156863
0.39705882352941174
0.46764705882352947
0.37500000000000006
0.21715686274509802
0.20147058823529412
0.2647058823529412
0.24117647058823527
0.2598039215686274
0.1676470588235294
0.08088235294117647
0.16519607843137252
0.48529411764705876
0.5965686274509804
0.5200980392156863
0.3475490196078431
0.35245098039215683
0.4598039215686274
0.5068627450980393
0.4661764705882353
0.49411764705882355
0.3480392156862745
0.18578431372549017
0.2676470588235294
0.471078431372549
0.5818627450980391
0.5980392156862745
0.5259803921568627
0.5117647058823529
0.5686274509803921
0.5911764705882353
0.5813725490196079
0.5598039215686275
0.34656862745098044
0.13627450980392158
0.044117647058823525
0.03137254901960784
0.12205882352941176
0.36960784313725487
0.4931372549019608
0.46862745098039216
0.3053921568627451
0.2284313725490196
0.4230392156862745
0.5068627450980393
0.42647058823529416
0.41813725490196074
0.5024509803921569
0.5431372549019607
0.5122549019607844
0.3720588235294118
0.3975490196078431
0.4730392156862745
0.47549019607843146
0.3901960784313725
0.19705882352941176
0.07254901960784314
0.03431372549019608
0.11421568627450981
0.30980392156862746
0.40098039215686276
0.43186274509803924
0.4651960784313725
0.5607843137254902
0.5936274509803922
0.5759803921568627
0.6004901960784312
0.6196078431372549
0.5661764705882353
0.47401960784313724
0.5034313725490196
0.5789215686274509
0.6063725490196078
0.5852941176470587
0.5818627450980391
0.5357843137254902
0.5485294117647058
0.47794117647058826
0.3931372549019608
0.20686274509803926
0.1357843137254902
0.16176470588235298
0.21470588235294116
0.3524509803921569
0.5122549019607843
0.530392156862745
0.5323529411764705
0.421078431372549
0.3245098039215686
0.30098039215686273
0.2931372549019608
0.30049019607843136
0.3970588235294118
0.4843137254901961
0.4799019607843137
0.4529411764705882
0.42303921568627445
0.36274509803921573
0.3926470588235294
0.48578431372549025
0.43578431372549026
0.39852941176470585
0.34264705882352936
0.34215686274509804
0.3730392156862745
0.41960784313725485
0.4514705882352942
0.3666666666666667
0.2563725490196078
0.2593137254901961
0.3852941176470588
0.4862745098039215
0.5352941176470588
0.5436274509803921
0.5759803921568627
0.5720588235294117
0.5696078431372549
0.5313725490196078
0.5455882352941176
0.5720588235294117
0.5303921568627451
0.421078431372549
0.25245098039215685
0.13627450980392156
0.14215686274509803
0.25441176470588234
0.317156862745098
0.2681372549019608
0.17647058823529413
0.10343137254901962
0.1264705882352941
0.24558823529411763
0.31519607843137254
0.2980392156862745
0.3676470588235294
0.4357843137254902
0.3779411764705882
0.3784313725490196
0.4348039215686274
0.4549019607843138
0.39019607843137255
0.24852941176470586
0.26519607843137255
0.39999999999999997
0.509313725490196
0.6083333333333334
0.5642156862745098
0.4730392156862746
0.46911764705882353
0.46372549019607845
0.37745098039215685
0.3431372549019608
0.4269607843137255
0.5735294117647058
0.18725490196078431
0.15147058823529413
0.2519607843137255
0.44607843137254904
0.5142156862745098
0.4950980392156863
0.5544117647058823
0.5656862745098039
0.563235294117647
0.5661764705882352
0.5818627450980391
0.5779411764705882
0.5715686274509804
0.525
0.4745098039215687
0.4495098039215686
0.438235294117647
0.521078431372549
0.5852941176470587
0.6039215686274509
0.6181372549019608
0.603921568627451
0.5911764705882352
0.5397058823529413
0.46715686274509804
0.4313725490196078
0.39656862745098037
0.35882352941176476
0.3529411764705883
0.42254901960784313
0.37892156862745097
0.19313725490196082
0.18284313725490195
0.3583333333333333
0.5230392156862744
0.5794117647058823
0.6019607843137256
0.623529411764706
0.6372549019607844
0.6073529411764705
0.532843137254902
0.4691176470588235
0.3049019607843137
0.221078431372549
0.2754901960784314
0.4034313725490196
0.49068627450980395
0.4862745098039215
0.40588235294117647
0.3088235294117647
0.19852941176470587
0.17352941176470588
0.1284313725490196
0.1034313725490196
0.1299019607843137
0.19019607843137257
0.2754901960784314
0.3362745098039216
0.3112745098039216
0.26323529411764707
0.21323529411764705
0.30539215686274507
0.5323529411764706
0.6044117647058824
0.6308823529411766
0.6044117647058823
0.6063725490196078
0.6230392156862745
0.592156862745098
0.5235294117647059
0.4318627450980392
0.2911764705882353
0.13627450980392156
0.20637254901960783
0.4068627450980392
0.5127450980392156
0.4931372549019608
0.4671568627450981
0.4980392156862745
0.49558823529411766
0.3769607843137255
0.39803921568627454
0.5161764705882352
0.4862745098039216
0.4406862745098039
0.3446078431372549
0.2294117647058824
0.15784313725490196
0.1480392156862745
0.2088235294117647
0.1774509803921569
0.14068627450980392
0.16029411764705884
0.2
0.3196078431372549
0.5161764705882352
0.43529411764705883
0.32352941176470584
0.35735294117647054
0.4034313725490197
0.407843137254902
0.4156862745098039
0.2656862745098039
0.0857843137254902
0.00784313725490196
0.016666666666666666
0.058823529411764705
0.35245098039215683
0.48137254901960785
0.4941176470588235
0.4343137254901961
0.44362745098039225
0.47843137254901963
0.44362745098039214
0.4627450980392157
0.5142156862745098
0.3392156862745098
0.27549019607843134
0.36617647058823527
0.38676470588235295
0.25245098039215685
0.10343137254901962
0.06813725490196078
0.15931372549019607
0.1465686274509804
0.1676470588235294
0.2784313725490196
0.40049019607843134
0.4357843137254902
0.442156862745098
0.36617647058823527
0.30637254901960786
0.2200980392156863
0.18774509803921569
0.2892156862745098
0.4357843137254902
0.47794117647058826
0.4833333333333334
0.37745098039215685
0.3588235294117647
0.5470588235294117
0.5921568627450979
0.617156862745098
0.5661764705882353
0.3990196078431373
0.12598039215686274
0.052941176470588235
0.053921568627450976
0.21617647058823528
0.46127450980392154
0.6122549019607842
0.5970588235294118
0.47843137254901963
0.46911764705882353
0.35980392156862745
0.08774509803921568
0.051960784313725486
0.04068627450980392
0.09313725490196079
0.25833333333333336
0.5318627450980392
0.6431372549019607
0.6303921568627451
0.5848039215686275
0.45833333333333326
0.2676470588235294
0.328921568627451
0.4053921568627451
0.4470588235294118
0.45735294117647063
0.48578431372549025
0.45637254901960783
0.3936274509803922
0.34852941176470587
0.2627450980392157
0.2588235294117647
0.32696078431372555
0.4465686274509804
0.41519607843137246
0.4352941176470587
0.40588235294117647
0.42107843137254897
0.3700980392156863
0.29460784313725485
0.30294117647058827
0.26666666666666666
0.3343137254901961
0.3813725490196078
0.4083333333333334
0.4318627450980393
0.4593137254901961
0.5225490196078431
0.4450980392156862
0.3475490196078432
0.34313725490196084
0.45588235294117646
0.44362745098039214
0.4857843137254902
0.41029411764705886
0.27990196078431373
0.39313725490196083
0.543627450980392
0.5754901960784313
0.551470588235294
0.5544117647058823
0.5441176470588235
0.3617647058823529
0.2338235294117647
0.30539215686274507
0.3906862745098039
0.42205882352941176
0.38578431372549016
0.2686274509803922
0.17401960784313722
0.19852941176470587
0.38676470588235295
0.5186274509803921
0.45784313725490194
0.40588235294117647
0.3735294117647059
0.34215686274509804
0.33529411764705885
0.4161764705882353
0.40392156862745104
0.3299019607843137
0.2323529411764706
0.19264705882352942
0.2764705882352941
0.43137254901960786
0.4681372549019608
0.37549019607843137
0.3034313725490196
0.2833333333333333
0.24558823529411763
0.26421568627450975
0.13970588235294118
0.0588235294117647
0.06813725490196079
0.35686274509803917
0.5666666666666667
0.5151960784313725
0.3495098039215686
0.5147058823529411
0.657843137254902
0.6436274509803922
0.5774509803921568
0.5519607843137255
0.36176470588235293
0.2818627450980392
0.3926470588235294
0.43725490196078437
0.5019607843137255
0.5833333333333334
0.5862745098039216
0.4240196078431373
0.3558823529411765
0.48382352941176465
0.5725490196078431
0.6465686274509804
0.5539215686274509
0.27794117647058825
0.15098039215686274
0.0946078431372549
0.1681372549019608
0.3887254901960785
0.5455882352941175
0.5455882352941176
0.453921568627451
0.2686274509803922
0.24558823529411766
0.2691176470588235
0.14019607843137258
0.1681372549019608
0.3509803921568628
0.49558823529411766
0.4725490196078432
0.34509803921568627
0.4514705882352941
0.49264705882352944
0.39117647058823535
0.30637254901960786
0.1803921568627451
0.06372549019607844
0.032843137254901955
0.15833333333333335
0.3799019607843137
0.45833333333333337
0.42598039215686273
0.2946078431372549
0.30490196078431375
0.4299019607843137
0.5083333333333333
0.4897058823529412
0.47009803921568627
0.442156862745098
0.29901960784313725
0.37745098039215685
0.5083333333333333
0.6053921568627451
0.6269607843137255
0.6205882352941177
0.5661764705882352
0.5406862745098039
0.48578431372549014
0.41127450980392155
0.38970588235294124
0.3799019607843137
0.3622549019607843
0.40196078431372545
0.4941176470588235
0.5426470588235295
0.5392156862745098
0.5249999999999999
0.4602941176470588
0.3014705882352941
0.14411764705882352
0.061764705882352944
0.09852941176470588
0.27990196078431373
0.5102941176470589
0.6191176470588236
0.5931372549019608
0.5034313725490196
0.4323529411764706
0.444607843137255
0.48235294117647065
0.41911764705882354
0.40441176470588236
0.5196078431372548
0.5627450980392156
0.5480392156862745
0.5426470588235294
0.5161764705882353
0.3254901960784314
0.18872549019607843
0.16666666666666666
0.27598039215686276
0.3926470588235294
0.4676470588235294
0.5475490196078431
0.5107843137254902
0.4200980392156863
0.296078431372549
0.28725490196078435
0.36666666666666664
0.3759803921568628
0.3112745098039216
0.228921568627451
0.1519607843137255
0.1857843137254902
0.2857843137254902
0.35784313725490197
0.3916666666666666
0.3941176470588235
0.2852941176470588
0.22205882352941178
0.321078431372549
0.4892156862745098
0.5823529411764705
0.6014705882352941
0.5980392156862746
0.6176470588235294
0.6230392156862745
0.6225490196078433
0.5946078431372549
0.5235294117647059
0.41323529411764715
0.32941176470588235
0.4156862745098039
0.49264705882352944
0.5024509803921569
0.5401960784313725
0.532843137254902
0.4911764705882353
0.4627450980392157
0.3647058823529412
0.24215686274509807
0.2058823529411765
0.3700980392156863
0.5534313725490196
0.2946078431372549
0.2553921568627451
0.33333333333333337
0.44656862745098047
0.5112745098039215
0.4980392156862745
0.5151960784313725
0.5490196078431372
0.5602941176470588
0.5588235294117646
0.5813725490196078
0.5813725490196078
0.5892156862745098
0.5519607843137254
0.5019607843137255
0.4725490196078431
0.4318627450980392
0.4598039215686275
0.4965686274509804
0.5220588235294118
0.5568627450980391
0.5745098039215686
0.5995098039215685
0.6073529411764705
0.5926470588235294
0.5357843137254902
0.41568627450980394
0.2740196078431372
0.23480392156862748
0.3063725490196078
0.30196078431372547
0.2127450980392157
0.19558823529411767
0.31666666666666665
0.45049019607843144
0.5705882352941176
0.632843137254902
0.6588235294117648
0.6181372549019607
0.5823529411764705
0.5392156862745098
0.5509803921568627
0.4936274509803922
0.34558823529411764
0.27598039215686276
0.3284313725490196
0.4769607843137255
0.5509803921568627
0.5397058823529411
0.5107843137254902
0.4480392156862746
0.3205882352941177
0.2450980392156863
0.17598039215686273
0.06568627450980392
0.07794117647058824
0.10882352941176468
0.1681372549019608
0.22401960784313726
0.15049019607843137
0.0769607843137255
0.10882352941176471
0.2745098039215686
0.5039215686274511
0.5897058823529412
0.4936274509803922
0.3627450980392157
0.39460784313725494
0.4176470588235294
0.3294117647058823
0.23382352941176474
0.14901960784313728
0.07352941176470588
0.05392156862745097
0.17009803921568628
0.34411764705882353
0.513235294117647
0.5705882352941176
0.5598039215686275
0.48872549019607847
0.4176470588235293
0.509313725490196
0.49264705882352944
0.47990196078431374
0.5357843137254901
0.4862745098039215
0.39362745098039215
0.37549019607843137
0.2901960784313726
0.26372549019607844
0.37401960784313726
0.39754901960784317
0.4122549019607843
0.4583333333333333
0.5411764705882354
0.6210784313725491
0.6490196078431373
0.634313725490196
0.5102941176470589
0.4245098039215686
0.2857843137254902
0.22794117647058823
0.13578431372549016
0.049509803921568625
0.02450980392156863
0.04607843137254902
0.16666666666666669
0.3490196078431373
0.3627450980392157
0.44019607843137254
0.4848039215686275
0.47009803921568627
0.530392156862745
0.47794117647058826
0.4323529411764706
0.49264705882352944
0.44313725490196076
0.44019607843137254
0.46617647058823536
0.4431372549019608
0.2931372549019608
0.20049019607843138
0.18823529411764703
0.3014705882352941
0.38235294117647056
0.32450980392156864
0.3970588235294118
0.47205882352941175
0.4593137254901961
0.44509803921568625
0.3264705882352941
0.1661764705882353
0.1392156862745098
0.31323529411764706
0.5406862745098039
0.6191176470588236
0.5955882352941176
0.6323529411764706
0.4436274509803922
0.17254901960784313
0.2269607843137255
0.4024509803921569
0.5622549019607843
0.580392156862745
0.3534313725490196
0.10098039215686275
0.02696078431372549
0.07205882352941176
0.19019607843137254
0.31960784313725493
0.47352941176470587
0.49460784313725487
0.2725490196078431
0.3509803921568628
0.3700980392156862
0.13578431372549019
0.12745098039215685
0.1681372549019608
0.2549019607843137
0.34852941176470587
0.37549019607843137
0.4377450980392157
0.47941176470588237
0.4553921568627451
0.3230392156862745
0.20392156862745098
0.228921568627451
0.2696078431372549
0.26176470588235295
0.23137254901960785
0.2176470588235294
0.27549019607843134
0.37254901960784315
0.42500000000000004
0.36862745098039224
0.2303921568627451
0.2691176470588235
0.39852941176470585
0.4622549019607843
0.44754901960784316
0.41617647058823526
0.42500000000000004
0.3362745098039216
0.17598039215686276
0.14852941176470588
0.08921568627450979
0.10784313725490198
0.2852941176470588
0.32647058823529407
0.3411764705882353
0.41127450980392155
0.3416666666666666
0.19558823529411765
0.10392156862745097
0.12549019607843137
0.30833333333333335
0.47352941176470587
0.580392156862745
0.5632352941176471
0.5107843137254902
0.5872549019607843
0.6352941176470588
0.611764705882353
0.588235294117647
0.546078431372549
0.47794117647058826
0.39264705882352946
0.4161764705882353
0.42254901960784313
0.32009803921568625
0.15686274509803924
0.05833333333333333
0.050980392156862744
0.14362745098039215
0.27941176470588236
0.47058823529411764
0.5735294117647058
0.5196078431372548
0.40980392156862744
0.257843137254902
0.10588235294117647
0.2088235294117647
0.49705882352941166
0.6112745098039216
0.6
0.5176470588235295
0.36715686274509807
0.33872549019607845
0.37941176470588234
0.3955882352941177
0.4122549019607843
0.36764705882352944
0.38823529411764707
0.4210784313725491
0.39656862745098037
0.24950980392156866
0.07549019607843135
0.044117647058823525
0.2181372549019608
0.44411764705882356
0.47843137254901963
0.46029411764705885
0.580392156862745
0.6196078431372549
0.6117647058823529
0.5455882352941176
0.5117647058823529
0.4264705882352941
0.34803921568627455
0.2446078431372549
0.15833333333333333
0.2519607843137255
0.3308823529411765
0.35392156862745094
0.2142156862745098
0.1769607843137255
0.3230392156862745
0.5186274509803921
0.5955882352941176
0.627450980392157
0.49607843137254903
0.38578431372549016
0.33284313725490194
0.296078431372549
0.4877450980392156
0.6176470588235295
0.6509803921568628
0.6240196078431373
0.488235294117647
0.36470588235294116
0.20833333333333331
0.13382352941176473
0.15294117647058822
0.2519607843137255
0.34166666666666673
0.4009803921568627
0.2691176470588236
0.27303921568627454
0.2691176470588235
0.19215686274509805
0.30049019607843136
0.38529411764705884
0.292156862745098
0.1607843137254902
0.14558823529411763
0.3127450980392157
0.4642156862745098
0.4833333333333334
0.3142156862745098
0.21911764705882353
0.31323529411764706
0.4117647058823529
0.4754901960784314
0.446078431372549
0.3284313725490196
0.2852941176470588
0.33578431372549017
0.40588235294117647
0.5019607843137255
0.5343137254901961
0.5377450980392157
0.5534313725490196
0.5598039215686275
0.5490196078431372
0.4950980392156863
0.532843137254902
0.45539215686274515
0.2661764705882353
0.20588235294117643
0.21127450980392157
0.25980392156862747
0.2941176470588236
0.4024509803921569
0.32303921568627453
0.18333333333333335
0.20735294117647057
0.2441176470588235
0.20294117647058826
0.22549019607843135
0.3862745098039216
0.4691176470588236
0.44950980392156864
0.46862745098039216
0.4480392156862745
0.36225490196078425
0.3323529411764706
0.37598039215686274
0.47892156862745094
0.6107843137254902
0.5946078431372549
0.4769607843137255
0.4622549019607843
0.3549019607843137
0.1504901960784314
0.12990196078431374
0.19166666666666668
0.23627450980392162
0.2901960784313726
0.4338235294117648
0.5563725490196079
0.5519607843137254
0.4632352941176471
0.4102941176470588
0.45833333333333326
0.5299019607843137
0.5181372549019608
0.47401960784313724
0.403921568627451
0.39950980392156865
0.43480392156862746
0.44264705882352945
0.35980392156862745
0.37450980392156863
0.3686274509803922
0.2838235294117647
0.22058823529411764
0.2088235294117647
0.36078431372549014
0.5387254901960784
0.5534313725490196
0.5833333333333333
0.657843137254902
0.6833333333333335
0.6622549019607844
0.6274509803921569
0.6343137254901962
0.6034313725490197
0.594607843137255
0.5833333333333333
0.5955882352941176
0.5602941176470588
0.5034313725490196
0.4151960784313726
0.4127450980392156
0.38235294117647056
0.3303921568627451
0.23921568627450984
0.16470588235294117
0.24313725490196078
0.32303921568627453
0.49215686274509807
0.46911764705882353
0.4794117647058823
0.5073529411764706
0.5205882352941176
0.4882352941176471
0.45588235294117646
0.509313725490196
0.5367647058823529
0.5607843137254901
0.5622549019607842
0.5524509803921568
0.538235294117647
0.5352941176470588
0.4838235294117647
0.39313725490196083
0.27549019607843134
0.20588235294117646
0.2230392156862745
0.24313725490196078
0.2897058823529412
0.3941176470588236
0.4725490196078431
0.4926470588235294
0.4759803921568628
0.4294117647058824
0.41715686274509794
0.35392156862745106
0.3049019607843137
0.25833333333333336
0.2284313725490196
0.2583333333333333
0.3367647058823529
0.43039215686274507
0.4696078431372549
0.4769607843137255
0.5735294117647058
0.6009803921568627
0.5558823529411765
0.5176470588235293
0.5299019607843137
0.5151960784313725
0.5254901960784314
0.5700980392156862
0.5725490196078431
0.526470588235294
0.4274509803921568
0.37254901960784315
0.43725490196078437
0.5789215686274509
0.6308823529411766
0.588235294117647
0.4166666666666667
0.29215686274509806
0.20735294117647057
0.16470588235294117
0.1607843137254902
0.1588235294117647
0.1426470588235294
0.2519607843137255
0.2563725490196079
0.175
0.11568627450980391
0.15245098039215688
0.28039215686274505
0.2818627450980392
0.2196078431372549
0.19411764705882353
0.15490196078431373
0.0661764705882353
0.04509803921568628
0.032352941176470584
0.010294117647058823
0.01764705882352941
0.018627450980392157
0.07745098039215685
0.30490196078431375
0.5186274509803922
0.6181372549019607
0.48872549019607847
0.4323529411764706
0.4799019607843137
0.4465686274509804
0.36666666666666664
0.5573529411764706
0.6088235294117647
0.538235294117647
0.4534313725490196
0.4676470588235294
0.4833333333333334
0.582843137254902
0.5794117647058823
0.5602941176470587
0.5681372549019609
0.653921568627451
0.6529411764705881
0.6426470588235293
0.6720588235294118
0.6274509803921569
0.48382352941176476
0.40539215686274505
0.4147058823529412
0.4137254901960784
0.12990196078431374
0.08186274509803923
0.16372549019607846
0.38872549019607844
0.5470588235294118
0.4117647058823529
0.2529411764705882
0.36813725490196075
0.4558823529411765
0.5362745098039214
0.5058823529411766
0.4034313725490196
0.4200980392156862
0.5225490196078431
0.5691176470588235
0.6068627450980392
0.5549019607843138
0.4475490196078432
0.3397058823529411
0.2598039215686274
0.2529411764705882
0.3686274509803921
0.4740196078431373
0.46715686274509804
0.5269607843137255
0.5416666666666666
0.47843137254901963
0.3318627450980392
0.292156862745098
0.3269607843137255
0.47107843137254896
0.6245098039215686
0.6254901960784314
0.5656862745098039
0.5573529411764706
0.43970588235294117
0.30000000000000004
0.1764705882352941
0.3509803921568627
0.5852941176470587
0.5088235294117647
0.2450980392156863
0.17745098039215687
0.2019607843137255
0.1985294117647059
0.2161764705882353
0.3093137254901961
0.4730392156862745
0.44411764705882356
0.2299019607843137
0.18480392156862743
0.24754901960784315
0.24803921568627452
0.3044117647058823
0.3833333333333333
0.4024509803921569
0.36813725490196075
0.4632352941176471
0.35735294117647065
0.2563725490196079
0.23284313725490197
0.21813725490196081
0.27598039215686276
0.30196078431372547
0.34509803921568627
0.39215686274509803
0.3289215686274509
0.16862745098039217
0.10980392156862745
0.2803921568627451
0.41274509803921566
0.35833333333333334
0.1426470588235294
0.1970588235294118
0.44705882352941173
0.5563725490196079
0.5887254901960783
0.5872549019607842
0.4950980392156863
0.3068627450980392
0.21323529411764708
0.18480392156862743
0.09019607843137255
0.08970588235294116
0.23725490196078433
0.29117647058823526
0.2735294117647059
0.17647058823529413
0.0642156862745098
0.03529411764705882
0.07549019607843137
0.20882352941176469
0.3828431372549019
0.42401960784313725
0.5524509803921568
0.615686274509804
0.6303921568627451
0.607843137254902
0.6397058823529412
0.5892156862745098
0.5642156862745098
0.586764705882353
0.5622549019607843
0.5352941176470588
0.5279411764705882
0.49313725490196075
0.40441176470588236
0.1892156862745098
0.058333333333333334
0.13627450980392158
0.3857843137254902
0.4877450980392157
0.49754901960784315
0.5235294117647059
0.47401960784313724
0.34264705882352936
0.17107843137254902
0.06078431372549019
0.10490196078431371
0.3299019607843137
0.48480392156862745
0.557843137254902
0.5970588235294118
0.6323529411764706
0.6142156862745098
0.5725490196078431
0.46029411764705885
0.4063725490196078
0.41666666666666663
0.40392156862745093
0.4509803921568627
0.43333333333333324
0.37598039215686274
0.21176470588235294
0.12450980392156863
0.12450980392156863
0.2426470588235294
0.5127450980392156
0.6299019607843138
0.5906862745098038
0.5789215686274509
0.5372549019607843
0.4441176470588235
0.42156862745098034
0.4779411764705882
0.411764705882353
0.19362745098039216
0.10882352941176471
0.12598039215686274
0.13137254901960785
0.19754901960784316
0.28088235294117647
0.22941176470588237
0.20490196078431375
0.325
0.46813725490196073
0.596078431372549
0.6245098039215686
0.5607843137254902
0.4970588235294118
0.49607843137254903
0.5661764705882353
0.5818627450980391
0.5651960784313725
0.5808823529411765
0.5004901960784314
0.5004901960784314
0.30980392156862746
0.12058823529411765
0.10735294117647058
0.1161764705882353
0.11911764705882352
0.3151960784313726
0.27107843137254906
0.1519607843137255
0.1519607843137255
0.12352941176470589
0.3107843137254902
0.5215686274509803
0.5509803921568628
0.457843137254902
0.25980392156862747
0.18725490196078434
0.2509803921568628
0.35686274509803917
0.42794117647058827
0.37745098039215685
0.3897058823529412
0.44166666666666676
0.47107843137254907
0.44215686274509797
0.29656862745098045
0.375
0.46519607843137256
0.47156862745098044