/*--------------------------------*- C++ -*----------------------------------*\
| =========                 |                                                 |
| \\      /  F ield         | OpenFOAM: The Open Source CFD Toolbox           |
|  \\    /   O peration     | Version:  2.3.0                                 |
|   \\  /    A nd           | Web:      www.OpenFOAM.org                      |
|    \\/     M anipulation  |                                                 |
\*---------------------------------------------------------------------------*/
FoamFile
{
    version     2.0;
    format      ascii;
    class       volScalarField;
    location    "0";
    object      F0;
}
// * * * * * * * * * * * * * * * * * * * * * * * * * * * * * * * * * * * * * //

dimensions      [0 0 0 0 0 0 0];

internalField   nonuniform List<scalar>
50292
(
0.5276078431372553
0.5363529411764708
0.5333725490196081
0.5351764705882356
0.5378431372549023
0.5289019607843142
0.5325882352941177
0.539529411764706
0.5409803921568631
0.5476078431372553
0.5361960784313731
0.5161568627450982
0.5336470588235297
0.5359607843137256
0.5138823529411765
0.5269019607843137
0.5257647058823532
0.5285098039215689
0.5142352941176473
0.5126666666666669
0.5141960784313726
0.5139607843137256
0.5100784313725492
0.5135686274509804
0.5234117647058827
0.4943137254901959
0.4789019607843138
0.4410588235294115
0.4740784313725488
0.510588235294118
0.4778431372549019
0.4710588235294119
0.5057254901960788
0.5050980392156864
0.5025882352941179
0.5016470588235298
0.45478431372549016
0.4410980392156857
0.4683921568627447
0.5105882352941178
0.5115686274509804
0.5008235294117648
0.4865490196078434
0.4122352941176466
0.4658823529411763
0.4716862745098039
0.47737254901960774
0.50721568627451
0.4627058823529413
0.32713725490196033
0.39062745098039175
0.4830196078431372
0.49015686274509784
0.5186666666666669
0.5038039215686275
0.5074117647058826
0.4351372549019608
0.42745098039215684
0.4877254901960785
0.48643137254902
0.4802352941176472
0.40749019607843096
0.4315294117647057
0.47250980392156877
0.43270588235294083
0.37423529411764667
0.4761568627450983
0.45207843137254855
0.451450980392157
0.44309803921568586
0.43278431372548964
0.4591764705882354
0.48968627450980406
0.48180392156862717
0.48568627450980406
0.48639215686274523
0.4829803921568629
0.5104313725490198
0.48894117647058866
0.4487843137254902
0.43439215686274474
0.41266666666666624
0.4767450980392155
0.5178039215686276
0.519372549019608
0.5099215686274512
0.523960784313726
0.4622352941176473
0.4242745098039214
0.46584313725490145
0.5071764705882351
0.5315294117647061
0.5205882352941177
0.4585882352941178
0.3914117647058819
0.3181568627450976
0.39376470588235263
0.4439215686274509
0.4356470588235289
0.496
0.49717647058823566
0.4832941176470588
0.5365098039215688
0.4758039215686273
0.47584313725490207
0.4807450980392155
0.5138823529411769
0.5274509803921572
0.5129019607843138
0.48874509803921556
0.5160000000000002
0.4832941176470583
0.5161568627450983
0.540901960784314
0.5193333333333335
0.4992549019607839
0.5330980392156867
0.49862745098039235
0.50321568627451
0.5152549019607846
0.5383921568627454
0.5080784313725489
0.5186274509803923
0.520745098039216
0.48929411764705866
0.4835294117647058
0.514313725490196
0.5183137254901959
0.4971372549019605
0.5177254901960786
0.5301176470588236
0.5228235294117649
0.5332549019607847
0.5474901960784316
0.5365490196078432
0.5540392156862748
0.5469019607843141
0.543843137254902
0.5400784313725494
0.531294117647059
0.4656862745098036
0.5041568627450982
0.44807843137254855
0.4950588235294117
0.5120000000000001
0.5175686274509804
0.5039215686274514
0.4701176470588236
0.5424705882352944
0.5144705882352942
0.4318823529411763
0.47478431372549024
0.5156862745098041
0.5381568627450982
0.5460784313725494
0.5343921568627453
0.4849019607843136
0.5181960784313726
0.5413333333333338
0.5228627450980395
0.5360784313725492
0.5490980392156868
0.4967843137254897
0.5365882352941179
0.52521568627451
0.5349411764705884
0.5507058823529414
0.5490980392156867
0.5424313725490201
0.5510588235294124
0.5410980392156867
0.5399215686274514
0.5345882352941181
0.5466274509803923
0.5449019607843141
0.5374509803921572
0.5308627450980395
0.4425098039215682
0.5242352941176472
0.46713725490196045
0.5106666666666666
0.5331372549019608
0.5496078431372555
0.5356078431372553
0.5195686274509806
0.529490196078432
0.49650980392156874
0.5061568627450983
0.5318039215686277
0.5355686274509803
0.55521568627451
0.5358431372549021
0.5351764705882356
0.5358039215686277
0.5640784313725493
0.5031372549019608
0.5368627450980396
0.5495686274509809
0.5272549019607845
0.5113333333333336
0.5138039215686275
0.523254901960785
0.5514901960784315
0.5466274509803924
0.5567058823529415
0.5425490196078434
0.5387843137254906
0.550901960784314
0.5207058823529416
0.5131764705882352
0.5229411764705881
0.5521176470588238
0.5542745098039221
0.5542745098039218
0.5662745098039219
0.5340000000000003
0.5472549019607845
0.5451764705882357
0.5227058823529414
0.5282352941176469
0.5394901960784315
0.45047058823529357
0.45698039215686265
0.5612941176470588
0.5455294117647062
0.5516078431372552
0.5479215686274511
0.5292549019607848
0.5343529411764708
0.5218823529411768
0.5393333333333336
0.5368627450980399
0.5553333333333338
0.5567450980392159
0.5562352941176473
0.5530980392156867
0.5409411764705887
0.5441176470588236
0.4885098039215683
0.5149411764705881
0.5329019607843144
0.5434509803921571
0.5523529411764708
0.556235294117647
0.5409411764705885
0.5350980392156865
0.550588235294118
0.5341960784313728
0.5231372549019613
0.4916862745098037
0.5114117647058825
0.5195294117647061
0.5530980392156866
0.558039215686275
0.5559607843137256
0.557372549019608
0.5634901960784314
0.5590980392156867
0.5387058823529414
0.5334117647058829
0.5119607843137252
0.5266274509803922
0.498705882352941
0.5430196078431377
0.5421960784313731
0.5426666666666671
0.5471372549019611
0.5537254901960786
0.5660392156862748
0.5509019607843141
0.5455686274509808
0.5473725490196083
0.5433725490196081
0.556980392156863
0.5588627450980396
0.5483529411764708
0.5500784313725494
0.5476470588235298
0.5483137254901963
0.5346666666666668
0.5273333333333338
0.5110980392156866
0.516549019607843
0.5519607843137259
0.5493333333333336
0.5343529411764709
0.542352941176471
0.5525490196078434
0.5584313725490199
0.5473725490196082
0.5291372549019613
0.536509803921569
0.554980392156863
0.5447843137254906
0.5058823529411762
0.46576470588235286
0.5250588235294119
0.5292941176470592
0.5402352941176475
0.5394117647058827
0.5416470588235298
0.5292156862745102
0.5378823529411768
0.5384705882352941
0.5350196078431375
0.5456862745098043
0.5259607843137257
0.47592156862745044
0.47043137254901973
0.5401568627450983
0.5057647058823532
0.5516078431372553
0.5714901960784315
0.5510980392156868
0.5220392156862748
0.5269019607843138
0.5365098039215688
0.5273725490196082
0.5481960784313729
0.5446274509803927
0.5456470588235299
0.5499607843137259
0.5500392156862748
0.3902352941176468
0.31133333333333296
0.39270588235294085
0.47254901960784307
0.49674509803921574
0.5232941176470596
0.5511764705882356
0.530980392156863
0.5558431372549021
0.5603529411764708
0.5394509803921574
0.5432941176470593
0.540509803921569
0.5431764705882359
0.5391764705882355
0.5365882352941181
0.5477647058823532
0.5469411764705886
0.5358823529411768
0.5401176470588239
0.5388627450980397
0.5295294117647061
0.5107843137254903
0.4601960784313723
0.5321960784313726
0.5250980392156864
0.5132549019607846
0.5283921568627457
0.4784313725490192
0.525058823529412
0.5362745098039218
0.5366274509803928
0.5438431372549024
0.5330588235294119
0.5401176470588238
0.5435686274509809
0.517490196078432
0.5334901960784318
0.5316862745098041
0.5395294117647063
0.548980392156863
0.5414901960784317
0.5536078431372554
0.5531372549019613
0.5216470588235296
0.5165490196078433
0.5123921568627449
0.5375686274509809
0.5365490196078434
0.5160784313725493
0.48474509803921556
0.5001176470588236
0.5090980392156861
0.5280784313725494
0.4986666666666666
0.515058823529412
0.52521568627451
0.5134509803921571
0.5225098039215689
0.5383529411764708
0.5250196078431373
0.5396470588235295
0.5292549019607847
0.4209803921568623
0.4439215686274507
0.5242352941176474
0.5254509803921575
0.5425490196078436
0.5366274509803926
0.5367058823529415
0.5221568627450985
0.4950588235294118
0.4542745098039213
0.5083137254901965
0.5144313725490197
0.5319607843137257
0.5310588235294121
0.5418431372549023
0.5450588235294118
0.5451764705882356
0.5596470588235298
0.546745098039216
0.5464705882352945
0.5410588235294123
0.5227843137254903
0.5274509803921571
0.5362352941176476
0.5291764705882355
0.5171372549019609
0.46109803921568593
0.5250980392156865
0.5417647058823533
0.5359215686274514
0.5603137254901963
0.5685490196078434
0.5583529411764708
0.5545490196078436
0.5461960784313731
0.5458039215686279
0.52721568627451
0.5289411764705886
0.5118823529411762
0.5214117647058825
0.5145490196078434
0.5283921568627451
0.5595294117647063
0.5395294117647063
0.5309019607843141
0.5362745098039219
0.5070588235294121
0.4769019607843134
0.5075294117647062
0.5407058823529415
0.5449803921568632
0.5364705882352945
0.540196078431373
0.5068235294117647
0.4733333333333328
0.4927843137254902
0.5097254901960785
0.5409019607843141
0.5497647058823534
0.4984313725490198
0.4447843137254899
0.5396862745098041
0.534666666666667
0.537294117647059
0.5338431372549023
0.5421960784313733
0.46529411764705825
0.49427450980392146
0.45513725490196016
0.4541176470588231
0.5219607843137258
0.5122352941176469
0.542666666666667
0.5506666666666669
0.510156862745098
0.48623529411764693
0.5110196078431375
0.5081176470588238
0.5345490196078435
0.5200784313725494
0.4908235294117647
0.5161960784313728
0.5303137254901963
0.4972941176470587
0.5035294117647058
0.5437254901960787
0.543137254901961
0.5403921568627456
0.532745098039216
0.5247450980392162
0.48541176470588204
0.46321568627450943
0.4952549019607844
0.4598431372549016
0.5127450980392159
0.5268627450980393
0.5500000000000004
0.5214901960784315
0.5094901960784315
0.5197647058823531
0.47701960784313685
0.5283921568627453
0.5456862745098042
0.5430980392156868
0.508078431372549
0.505921568627451
0.5434509803921571
0.4943137254901957
0.5158823529411767
0.5385490196078435
0.5499607843137257
0.5380784313725492
0.5030588235294119
0.45231372549019566
0.49674509803921557
0.5073333333333335
0.500862745098039
0.5149019607843139
0.5081960784313726
0.4700392156862738
0.5207843137254907
0.4953333333333335
0.5274509803921571
0.5350980392156867
0.5287843137254907
0.5189019607843137
0.5510196078431377
0.5578431372549022
0.544823529411765
0.5033725490196079
0.5342745098039219
0.5502352941176474
0.5467058823529414
0.5370980392156864
0.5091764705882352
0.5282352941176471
0.5346274509803925
0.5220392156862746
0.526823529411765
0.5408235294117651
0.5111372549019608
0.5339607843137258
0.5159607843137253
0.538823529411765
0.5336470588235296
0.5401176470588239
0.5495686274509807
0.5414901960784317
0.5458431372549021
0.5376470588235296
0.5234509803921571
0.5261960784313728
0.541450980392157
0.5197647058823529
0.5338039215686279
0.4838039215686274
0.44976470588235273
0.5498039215686279
0.5410980392156862
0.5378431372549024
0.49035294117647044
0.46894117647058786
0.4638039215686272
0.4942745098039213
0.5021176470588233
0.5429411764705886
0.5371764705882356
0.5445490196078434
0.5305882352941179
0.5109019607843138
0.5298039215686277
0.5437647058823533
0.5046274509803919
0.53921568627451
0.5467450980392161
0.5564313725490199
0.5416078431372553
0.5266666666666671
0.5146274509803921
0.5314901960784317
0.5227058823529415
0.540980392156863
0.5197254901960785
0.5045098039215685
0.5369803921568627
0.5341568627450984
0.4640784313725487
0.4728235294117645
0.49949019607843115
0.4840784313725489
0.5194901960784312
0.5274117647058828
0.5306666666666671
0.5257647058823529
0.5508627450980395
0.5258039215686278
0.5048235294117648
0.5422745098039219
0.5245490196078436
0.5209803921568629
0.5395294117647063
0.5443921568627456
0.543058823529412
0.5494901960784317
0.5473725490196081
0.5118823529411765
0.5363921568627454
0.5388627450980397
0.4756470588235288
0.48674509803921545
0.5368235294117646
0.5343137254901965
0.5528627450980396
0.5420000000000003
0.5487843137254903
0.5415686274509807
0.5445490196078435
0.5402352941176474
0.513294117647059
0.4584705882352936
0.46976470588235253
0.5213725490196081
0.5483529411764709
0.5436470588235298
0.5460784313725493
0.5465882352941178
0.535058823529412
0.5343921568627453
0.5311764705882355
0.5270196078431377
0.5215294117647058
0.5229019607843138
0.5380392156862748
0.5223529411764709
0.5515294117647063
0.5518823529411767
0.5480000000000004
0.5332941176470591
0.540509803921569
0.5524313725490198
0.5187843137254904
0.5268235294117649
0.5338431372549022
0.5357254901960788
0.5438823529411768
0.5473725490196081
0.5407058823529415
0.5552941176470593
0.5425490196078436
0.5374901960784315
0.5380000000000004
0.5461568627450987
0.5407450980392157
0.5269019607843141
0.5239607843137255
0.5294901960784317
0.5196470588235297
0.5301568627450983
0.5131764705882353
0.49564705882352933
0.497529411764706
0.5208235294117648
0.5516470588235297
0.550823529411765
0.5414509803921573
0.5277647058823531
0.5376078431372551
0.5411764705882358
0.5256862745098043
0.5292549019607846
0.535294117647059
0.5257254901960788
0.5211764705882357
0.5336078431372553
0.5397647058823533
0.5447843137254904
0.5327843137254905
0.547803921568628
0.5422745098039217
0.5330980392156864
0.5394117647058824
0.5295294117647064
0.5508627450980392
0.535686274509804
0.539333333333334
0.5444705882352943
0.5458039215686278
0.5256078431372552
0.5335294117647059
0.5120392156862745
0.519921568627451
0.49976470588235317
0.4789411764705879
0.508392156862745
0.5355686274509809
0.517921568627451
0.5385882352941181
0.544823529411765
0.5507450980392159
0.5484313725490199
0.5393333333333333
0.5460392156862749
0.5445490196078437
0.5318431372549024
0.490862745098039
0.5179607843137258
0.5323921568627454
0.52643137254902
0.5245882352941181
0.5306274509803924
0.5287450980392159
0.5357254901960787
0.5399607843137257
0.5391372549019611
0.5117254901960784
0.5522745098039216
0.512862745098039
0.5353725490196081
0.44937254901960766
0.5008235294117649
0.5376862745098041
0.542823529411765
0.5458431372549023
0.5447843137254905
0.5137647058823531
0.5255294117647061
0.5323529411764709
0.5336470588235297
0.5508235294117653
0.5369803921568631
0.5432156862745101
0.5394117647058827
0.5221960784313731
0.4347450980392152
0.5070588235294117
0.508509803921569
0.4971372549019605
0.48592156862745034
0.5117254901960786
0.5254901960784317
0.5089019607843139
0.5230196078431377
0.5315686274509808
0.5578823529411766
0.5215294117647064
0.5120392156862745
0.5315686274509808
0.5175686274509805
0.5496078431372553
0.5396470588235298
0.5414509803921571
0.5412549019607849
0.5267058823529414
0.5355294117647061
0.5203137254901964
0.5024705882352939
0.47337254901960757
0.4778823529411763
0.5160392156862745
0.520117647058824
0.5114901960784314
0.4764313725490192
0.5230196078431376
0.5425490196078435
0.5527058823529416
0.5316470588235297
0.5271372549019611
0.5456470588235297
0.5154901960784315
0.5380392156862749
0.48815686274509823
0.5347843137254903
0.5483137254901965
0.5394117647058825
0.5342745098039218
0.536509803921569
0.5455294117647062
0.551568627450981
0.5205882352941176
0.5021960784313726
0.4947843137254902
0.5321176470588237
0.5230980392156868
0.5025882352941174
0.509294117647059
0.5117647058823532
0.5183921568627451
0.4663137254901958
0.5194117647058829
0.5349411764705887
0.5154509803921571
0.5062352941176472
0.4912156862745097
0.4605882352941174
0.49686274509803946
0.5222352941176475
0.5057647058823528
0.5386274509803926
0.5344705882352946
0.5145098039215685
0.5278039215686277
0.5281568627450983
0.526588235294118
0.5180784313725489
0.4918431372549017
0.47164705882352886
0.5266666666666672
0.5343921568627453
0.5321176470588238
0.5181960784313727
0.5364705882352943
0.5552549019607846
0.5511764705882356
0.5374117647058826
0.532823529411765
0.5214117647058828
0.5103921568627451
0.5290588235294122
0.5203529411764709
0.5408627450980394
0.5277254901960785
0.5447058823529417
0.5278431372549023
0.5325098039215689
0.5391372549019612
0.526980392156863
0.5383921568627457
0.5512549019607844
0.5511764705882356
0.5456078431372553
0.5352941176470594
0.5185882352941177
0.5142745098039216
0.5236470588235296
0.5168627450980393
0.5090980392156865
0.49992156862745074
0.5125882352941175
0.5443529411764708
0.5124705882352941
0.49988235294117656
0.5142352941176473
0.49658823529411805
0.49690196078431403
0.4903921568627451
0.5054117647058826
0.5223137254901962
0.5292941176470591
0.5201176470588239
0.4821568627450975
0.46482352941176425
0.4851764705882352
0.5201568627450986
0.53321568627451
0.5426274509803926
0.5300392156862749
0.5005882352941174
0.5176078431372549
0.4845098039215685
0.4715686274509803
0.4589411764705877
0.5087450980392156
0.4916470588235295
0.5330980392156868
0.48799999999999955
0.5292156862745101
0.510705882352941
0.5323137254901964
0.546509803921569
0.5225098039215692
0.5000392156862744
0.5078431372549018
0.5181960784313729
0.5216862745098044
0.5252549019607847
0.5176470588235298
0.5181176470588236
0.5149019607843137
0.538196078431373
0.5089019607843135
0.5270196078431377
0.5190980392156866
0.49490196078431387
0.48929411764705855
0.5168627450980396
0.5246274509803924
0.4484313725490191
0.48203921568627445
0.47882352941176437
0.4635686274509802
0.5145882352941179
0.5225882352941178
0.5198431372549023
0.5287450980392162
0.49250980392156835
0.5122352941176471
0.49749019607843115
0.41403921568627394
0.5076470588235295
0.5238823529411766
0.46631372549019573
0.484392156862745
0.522705882352941
0.5082352941176471
0.5289411764705884
0.5236470588235295
0.5224313725490195
0.499098039215686
0.510078431372549
0.49674509803921596
0.5285490196078431
0.5218039215686278
0.5084705882352941
0.4854117647058823
0.493607843137255
0.4530196078431368
0.5087058823529411
0.48588235294117643
0.5320784313725494
0.5423137254901963
0.5067058823529412
0.525686274509804
0.544117647058824
0.5339215686274512
0.5369803921568631
0.46180392156862704
0.4865882352941175
0.5236470588235297
0.5272941176470589
0.52921568627451
0.5303529411764709
0.5387058823529416
0.5368235294117651
0.5437647058823533
0.5287843137254903
0.5367058823529416
0.5370980392156867
0.5255686274509805
0.4910588235294117
0.5277254901960788
0.5007450980392154
0.5035686274509804
0.5283529411764707
0.5403921568627453
0.5238039215686277
0.5202745098039212
0.49741176470588216
0.49141176470588227
0.5133333333333335
0.5360784313725492
0.5404705882352944
0.5289411764705885
0.5334901960784316
0.5375294117647061
0.5441960784313727
0.5342745098039218
0.5129019607843136
0.5165882352941178
0.4921568627450981
0.4922352941176472
0.514078431372549
0.5235294117647062
0.5224313725490201
0.5294117647058828
0.527803921568628
0.5262745098039219
0.5331764705882357
0.55721568627451
0.5427058823529416
0.5243529411764709
0.5295294117647061
0.5198431372549023
0.5440000000000004
0.5489411764705884
0.5000392156862745
0.5036862745098039
0.5232549019607847
0.5304313725490198
0.5160000000000003
0.46741176470588186
0.4602352941176468
0.5290588235294122
0.5115294117647057
0.5332156862745099
0.5076078431372548
0.534039215686275
0.5390196078431376
0.49180392156862746
0.49894117647058833
0.5191764705882356
0.5446274509803928
0.5210196078431375
0.5485098039215691
0.5361176470588239
0.5366666666666672
0.5427450980392159
0.5276470588235298
0.5365490196078435
0.5310196078431376
0.5266274509803925
0.5422745098039221
0.520078431372549
0.5416078431372553
0.5194901960784314
0.48341176470588215
0.5040784313725489
0.5400392156862748
0.544666666666667
0.5397647058823533
0.5256470588235296
0.5202352941176475
0.5544705882352945
0.5505490196078433
0.523372549019608
0.5427058823529414
0.5016862745098037
0.4625490196078427
0.49262745098039185
0.5309411764705886
0.5261960784313728
0.521843137254902
0.5365098039215688
0.5218431372549022
0.5098823529411769
0.47458823529411714
0.502156862745098
0.5187843137254906
0.5171372549019612
0.536666666666667
0.5287843137254905
0.5446274509803924
0.5371372549019608
0.5425490196078436
0.529450980392157
0.5463921568627452
0.5370588235294121
0.47847058823529365
0.4997647058823531
0.5211372549019611
0.5250588235294118
0.5413725490196081
0.5437254901960784
0.5378431372549025
0.5524705882352944
0.5375686274509807
0.5363137254901965
0.5229803921568632
0.5190980392156868
0.48066666666666635
0.491411764705882
0.5130980392156863
0.5238823529411767
0.5232549019607847
0.5196470588235296
0.5220392156862748
0.5236862745098041
0.5128235294117647
0.5377647058823531
0.5323921568627457
0.5360392156862749
0.5322745098039218
0.5309411764705884
0.5539607843137259
0.5380000000000003
0.5288627450980391
0.5371372549019612
0.5403137254901964
0.5301568627450983
0.5281568627450983
0.5205098039215689
0.5298823529411769
0.5383137254901965
0.5414509803921571
0.5386274509803924
0.534274509803922
0.5310980392156864
0.4977254901960784
0.5084705882352943
0.5282745098039221
0.5297254901960787
0.541372549019608
0.536745098039216
0.5350196078431375
0.5197254901960787
0.5227450980392159
0.4868235294117646
0.5089803921568626
0.46113725490196045
0.4278823529411761
0.5222352941176474
0.5351372549019611
0.5358039215686277
0.5162745098039219
0.5192549019607844
0.5242745098039217
0.5399215686274512
0.5340784313725492
0.5324313725490201
0.5403529411764708
0.539058823529412
0.5446666666666671
0.5354117647058828
0.5324313725490201
0.5424313725490199
0.5361568627450984
0.5139607843137258
0.5260000000000002
0.5369803921568633
0.5354901960784317
0.519843137254902
0.5482745098039222
0.5438039215686278
0.54121568627451
0.5515686274509807
0.4810980392156861
0.483647058823529
0.5157254901960784
0.530901960784314
0.541058823529412
0.5357254901960785
0.5236470588235299
0.5116862745098044
0.5087843137254903
0.5185882352941175
0.5336078431372551
0.5477647058823532
0.5376470588235297
0.541137254901961
0.532901960784314
0.5324313725490197
0.5417254901960789
0.5318823529411766
0.4637647058823525
0.44886274509803875
0.5033725490196075
0.5395686274509809
0.5018823529411767
0.5304313725490198
0.5423137254901965
0.5084705882352941
0.5301176470588239
0.4956862745098036
0.5280392156862747
0.5087450980392156
0.5216862745098042
0.5240000000000004
0.5248627450980395
0.5333725490196082
0.5217647058823534
0.5392941176470591
0.5143921568627454
0.5142745098039222
0.5169411764705883
0.5168627450980395
0.48921568627450945
0.49352941176470577
0.5117647058823528
0.5070588235294121
0.5270980392156868
0.5354117647058826
0.5306274509803924
0.5069803921568627
0.5222352941176474
0.528666666666667
0.5059607843137255
0.5259607843137257
0.5131372549019609
0.5387843137254907
0.5276862745098044
0.5276078431372553
0.5295686274509807
0.5313725490196082
0.5465490196078433
0.544745098039216
0.5363137254901965
0.5169019607843142
0.42756862745097984
0.4904313725490194
0.52921568627451
0.5352156862745102
0.5357254901960787
0.5018823529411766
0.494313725490196
0.5148235294117649
0.5327843137254904
0.49611764705882344
0.49078431372549014
0.5183921568627452
0.5245882352941179
0.5219607843137257
0.4950980392156864
0.5129411764705885
0.5004705882352939
0.5393333333333336
0.535333333333334
0.5146274509803925
0.5306666666666672
0.5217647058823531
0.5203137254901965
0.5069019607843139
0.48517647058823493
0.4606666666666662
0.5147843137254903
0.5288235294117652
0.5235294117647061
0.49831372549019615
0.5189019607843138
0.5343921568627455
0.5404705882352945
0.5245882352941179
0.5188235294117649
0.4746274509803918
0.48592156862745084
0.5411764705882357
0.5158431372549022
0.5091764705882356
0.5050196078431375
0.5145490196078434
0.5027058823529411
0.5383137254901963
0.5307058823529414
0.5385490196078435
0.5266274509803925
0.532901960784314
0.5445098039215689
0.5277647058823531
0.5259215686274513
0.5304313725490198
0.5312549019607844
0.5466666666666671
0.5531764705882356
0.5400784313725494
0.5036078431372552
0.4964705882352937
0.5125098039215688
0.4462352941176465
0.46799999999999964
0.4835294117647058
0.46847058823529375
0.49619607843137253
0.5220000000000004
0.5142745098039218
0.5401960784313727
0.5240392156862749
0.519137254901961
0.49654901960784287
0.5167058823529416
0.5320392156862751
0.5048235294117644
0.5319607843137257
0.542588235294118
0.5312549019607848
0.5250588235294122
0.5054117647058827
0.5080784313725492
0.5017254901960784
0.48650980392156845
0.4970196078431372
0.4749019607843137
0.46521568627450927
0.4762745098039213
0.49478431372549003
0.542352941176471
0.5244705882352946
0.519843137254902
0.524901960784314
0.5049803921568624
0.5223137254901961
0.4827450980392157
0.47345098039215666
0.5134117647058823
0.5087843137254905
0.538823529411765
0.5130196078431373
0.5352941176470594
0.5340000000000003
0.5225490196078434
0.5098431372549022
0.5046274509803925
0.46717647058823497
0.5322745098039219
0.5241176470588238
0.5088235294117651
0.4913725490196079
0.45184313725490166
0.4476862745098036
0.481686274509804
0.5052549019607844
0.5124313725490197
0.504705882352941
0.5047843137254904
0.5089019607843135
0.46847058823529386
0.355019607843137
0.49800000000000016
0.5090196078431375
0.48376470588235293
0.41015686274509777
0.5320784313725491
0.5425098039215689
0.5363137254901963
0.5316862745098042
0.5423137254901964
0.5116862745098041
0.516666666666667
0.46607843137254884
0.47172549019607785
0.5024313725490194
0.4926666666666663
0.5053725490196078
0.5067843137254904
0.503607843137255
0.501098039215686
0.5276470588235296
0.5296862745098041
0.5517254901960786
0.5104313725490197
0.5005098039215685
0.539058823529412
0.5290588235294119
0.5200000000000002
0.5131372549019608
0.47878431372548996
0.517529411764706
0.5438039215686278
0.540509803921569
0.5356862745098043
0.5591764705882354
0.538196078431373
0.5225098039215691
0.4836078431372547
0.5251764705882356
0.5344705882352944
0.5375686274509807
0.5278431372549023
0.5028235294117646
0.47952941176470576
0.5184705882352941
0.5000392156862743
0.5230980392156865
0.49639215686274485
0.49321568627450946
0.49494117647058816
0.518666666666667
0.5345490196078433
0.5386274509803924
0.5337647058823533
0.5418431372549023
0.5443137254901964
0.5034901960784314
0.5206274509803924
0.5272156862745103
0.49592156862745035
0.4907450980392158
0.46847058823529375
0.47407843137254874
0.4716470588235294
0.5135686274509806
0.512313725490196
0.526352941176471
0.5380000000000004
0.5313725490196078
0.5516470588235297
0.5556470588235297
0.5171372549019608
0.5048235294117649
0.5200392156862749
0.5456862745098047
0.5390196078431377
0.5259607843137257
0.515529411764706
0.5244313725490198
0.5399607843137259
0.5274117647058825
0.5248235294117651
0.4909803921568624
0.5189019607843142
0.5219607843137255
0.5228627450980394
0.532901960784314
0.5109019607843135
0.5163529411764709
0.5207843137254907
0.5277647058823532
0.5148235294117647
0.5320392156862748
0.5354117647058827
0.5298823529411768
0.5208627450980393
0.513843137254902
0.5341568627450983
0.5380000000000003
0.531529411764706
0.5356470588235296
0.517058823529412
0.530509803921569
0.539058823529412
0.530352941176471
0.500470588235294
0.4783137254901956
0.491686274509804
0.5203921568627454
0.5303529411764708
0.5264313725490201
0.5398039215686278
0.5090588235294117
0.5201568627450983
0.5412549019607849
0.5434117647058829
0.506
0.5307058823529415
0.5203529411764708
0.4379999999999995
0.527686274509804
0.5379607843137258
0.5372549019607846
0.5187450980392161
0.5103529411764707
0.5209019607843138
0.5053333333333332
0.470705882352941
0.4905490196078432
0.5113333333333334
0.5043137254901963
0.5245098039215689
0.534901960784314
0.5443529411764709
0.5352549019607847
0.5356862745098041
0.5232549019607846
0.5201568627450982
0.5390196078431377
0.5292941176470589
0.518235294117647
0.5387843137254905
0.5376078431372552
0.531960784313726
0.5209803921568625
0.5356470588235297
0.5378039215686278
0.5341568627450983
0.5303529411764709
0.5424705882352945
0.5015686274509805
0.484078431372549
0.491176470588235
0.4389803921568623
0.4850588235294115
0.5225490196078435
0.5071764705882351
0.524901960784314
0.536901960784314
0.5274901960784318
0.527058823529412
0.5094509803921564
0.5216078431372552
0.5313725490196081
0.5404705882352944
0.5426666666666672
0.5385882352941179
0.5389803921568631
0.5334901960784316
0.5543921568627453
0.518666666666667
0.48949019607843147
0.5225098039215692
0.5150980392156865
0.5120392156862746
0.5370196078431376
0.5265490196078436
0.5315294117647064
0.5245882352941179
0.5103921568627451