/*--------------------------------*- C++ -*----------------------------------*\
| =========                 |                                                 |
| \\      /  F ield         | OpenFOAM: The Open Source CFD Toolbox           |
|  \\    /   O peration     | Version:  2.3.0                                 |
|   \\  /    A nd           | Web:      www.OpenFOAM.org                      |
|    \\/     M anipulation  |                                                 |
\*---------------------------------------------------------------------------*/
FoamFile
{
    version     2.0;
    format      ascii;
    class       volScalarField;
    location    "0";
    object      F0;
}
// * * * * * * * * * * * * * * * * * * * * * * * * * * * * * * * * * * * * * //

dimensions      [0 0 0 0 0 0 0];

internalField   nonuniform List<scalar>
80000
(
0.8096916215158032
0.8025547282772432
0.7957916882945926
0.8154345343408362
0.7911094437102637
0.8084250473166603
0.8087649513624351
0.8016010072312487
0.8120434761315273
0.8143970863080662
0.79995993909743
0.7984829418462254
0.8089604029586798
0.7855898070892094
0.7945801941228063
0.7961858858832203
0.8085788178810454
0.8166279942380841
0.798230952869988
0.7949996432627089
0.812428533420422
0.7865390133555529
0.8079903338952289
0.8079452640043667
0.809811667769158
0.8194259396336864
0.7812221516055398
0.8155306108442069
0.8028346906077007
0.8002445137100314
0.8063039542633013
0.7811194115640213
0.786410902650993
0.7894777712998378
0.7885452411423315
0.8091513243261037
0.7813008150737223
0.7895437292974501
0.7869653784272292
0.8014013734802312
0.7968469348290429
0.7971886281127917
0.8176668936432194
0.7932138141664553
0.7981539929075425
0.8132681732439947
0.8119717288133604
0.7832845234007232
0.7906450911989454
0.8022787137562775
0.802952638025652
0.8045601548915162
0.8183137017545811
0.8163823505892175
0.8061162945613873
0.7953333041315145
0.7822174624391931
0.7853034717714891
0.7863303117982615
0.8057570687333875
0.7831766641864202
0.8136619844128806
0.7921826375874463
0.7908972521858303
0.8080275462589017
0.8007151056611048
0.7924735203546159
0.8141333796399595
0.8059091983518536
0.8129246572576586
0.8044354297163854
0.8036124079871588
0.8145844375674736
0.8006567861385236
0.7820529779761766
0.7830769229297595
0.7820082766204042
0.7815762783057756
0.7845005346181233
0.8107749787024251
0.7957221264570854
0.8162123803837794
0.8038090762923081
0.7911659830048617
0.8082741672670369
0.8117978344501826
0.81580193063912
0.8043372299475395
0.7964649765760963
0.8118238004551038
0.7937188805607176
0.7828456353510058
0.81085611474498
0.8067450944474934
0.7821643262332936
0.8071328356740635
0.8148833045599987
0.7976526019178489
0.809411258172678
0.787602978420517
0.811737350524767
0.8128865840132418
0.7979770102514492
0.8067724656422435
0.8162526217934958
0.7988769004544487
0.7901877226852267
0.8054259488013304
0.7910587836443951
0.7947119042247112
0.7835283997316225
0.8038091428016816
0.7967357865352894
0.8029240557589606
0.798713552490975
0.8119319382158976
0.7907447220261072
0.7843536889543424
0.7860079864733293
0.7816185898385214
0.8188728691608405
0.7870204965178954
0.7989894724637596
0.8077319986131206
0.7929552618207134
0.8062532748915765
0.7993244501162462
0.780983866117118
0.7993112374132123
0.7855988583168075
0.8114379823195041
0.7834866403919539
0.8114034143429398
0.7992139525054666
0.7932709261764651
0.8079466450835252
0.7965993297426297
0.808702665626265
0.7802283887206598
0.7881044092312834
0.8139902245949087
0.8167628992440311
0.8152033859456472
0.7946935869149678
0.7907013272670449
0.7890445998109941
0.790449038973542
0.8056498706827542
0.8169887931470816
0.7941403811591016
0.7918485385858126
0.7855632566134161
0.8053506762883804
0.7911877108271781
0.7876934358729897
0.8035340875683
0.8013645834853849
0.8196164468232636
0.7851849174120407
0.8140797720517794
0.8179657252739977
0.8079426400933123
0.814564742715226
0.8070119050448321
0.8089445031517384
0.7995715686315218
0.7936630744863726
0.7912337508045013
0.8163229133464925
0.8140240486599145
0.7925350317675013
0.8023304297603014
0.7943716482533327
0.8199091982866258
0.7925767007437605
0.8165134585587239
0.8152747203315547
0.8036533419113903
0.8033318413907395
0.80924216806883
0.7960013851304999
0.7855805928594987
0.7871856037312106
0.8148331715612872
0.7894928161507357
0.8126837425843225
0.8115854463970353
0.8082865224388824
0.7878413338201412
0.8095018385629205
0.7817443536615951
0.7993100290373867
0.8145992089910685
0.7948712869941701
0.780982124883522
0.7911599869699384
0.7903513596947788
0.8115030744009285
0.8053241309219383
0.8178786720790384
0.7870391844746398
0.8003289868614032
0.8154316289699008
0.8181670108544219
0.8101815399504629
0.7850282881244706
0.8045297164964488
0.8046778639188814
0.8075845204968743
0.8054193796958691
0.8170203207634648
0.788061936874249
0.8136903139918669
0.8041189911783402
0.8091483878898101
0.811936267048609
0.8050002583946461
0.8081687209300803
0.7981740393536149
0.8022034794685631
0.7882074537801353
0.8084523369116574
0.8166896376273807
0.7873667905449495
0.8096100868826661
0.7953607817984506
0.8030278135394175
0.8140873363507809
0.7991739204854252
0.8043786086278143
0.7930757883788215
0.7809797841491286
0.7969138916438343
0.7822038335691124
0.7811750088860274
0.8118257006255136
0.7947929998456005
0.7933998554000777
0.7823034626239096
0.8082403196054242
0.8144769159394908
0.8175888222556182
0.8164497799479712
0.7901408738052799
0.8141575101439379
0.795648036713022
0.803382801178699
0.7981736115171709
0.7890735541704932
0.8086736236552513
0.8169847062885617
0.8055490290967414
0.815658850940502
0.8043681978373469
0.7844536268231567
0.7862078525919418
0.7874407166716693
0.8126201670355265
0.781070414189905
0.8117592601485937
0.8173395597013546
0.8079931234868566
0.7955815033309321
0.7986214244027601
0.8146253785211167
0.8051021345891824
0.8017490193555405
0.8110832274808591
0.7942168215494487
0.8060578190661164
0.8043474887668149
0.7916913471655285
0.8000300735265655
0.8023552433885052
0.8105062245530108
0.8181363643164672
0.8185346435681394
0.7878922922768302
0.8144177822329209
0.8088807782711416
0.7826518908155911
0.8110679516780792
0.781461837973282
0.812120445578176
0.810193763773518
0.8177100416234495
0.7805090342590706
0.8186752355003708
0.7974130926825338
0.7955801238252218
0.8126046373851167
0.8134152020033749
0.7885863583168273
0.8039589642397533
0.8095077053015312
0.8051781040287824
0.8177764024910719
0.8039137008531941
0.7977919882927985
0.7923998723184418
0.7879341302081352
0.8157546189617296
0.802204725212356
0.8070190644390581
0.7930612232601296
0.8084602390267771
0.7813714251828735
0.807811239615941
0.7826927670496349
0.7820658251311412
0.7925548464938039
0.7884578569429316
0.789218908551694
0.8164315847300403
0.7934117607650623
0.7814540683726944
0.7875410156209993
0.7803382498871049
0.8169975662282792
0.7939340773578134
0.807944075821087
0.7842646901226011
0.7868134791340827
0.787679216137544
0.8196500195328416
0.809934128208423
0.7832364752550275
0.8067382048105767
0.7893523865077179
0.7966751215224834
0.7807777367588508
0.8126525698844362
0.8061215718004064
0.7848914070140303
0.8091820058655421
0.8190564029303047
0.8126626403713623
0.7985643353412153
0.7813286637660685
0.7934100125653673
0.7988312371913908
0.806385249599565
0.7923781876220308
0.8122045417032397
0.8069996272572435
0.8072138073141648
0.7955109728225356
0.7999988717588142
0.7958987142350877
0.7861222404895639
0.7844853841443021
0.8107912060044677
0.8058463582547959
0.7860259905165199
0.8005241575947607
0.8005497088555305
0.7838339488562263
0.8029265816033628
0.8169645536215212
0.7978414685685422
0.7845247402688285
0.8025913991574671
0.8090610654719332
0.7836866362355553
0.8037281714143727
0.8013550123527585
0.8096381595828142
0.8016104793539861
0.8031075512930055
0.7855265434091787
0.8191053879483061
0.7822926922975936
0.809951229024581
0.7945769905126275
0.7964425894359062
0.8024852218466937
0.8145101963387831
0.7890758981823334
0.8009546388632143
0.7816674245582744
0.8098892077948068
0.8147958311738056
0.8164892634583439
0.799467290692466
0.7927112422728455
0.7907606537562064
0.8149424199402304
0.7997017563283538
0.8166141398432263
0.8023883974772925
0.7948540266062205
0.8195121715887547
0.7874519652483049
0.8140252082800027
0.8007343826330471
0.8027491408854065
0.8172801599215166
0.7895568024729536
0.7991922090789534
0.7995654530009688
0.78919545950902
0.7870827559402461
0.8052584027846765
0.8157753533762141
0.7856976515082119
0.7833484179849737
0.7802918843211386
0.8105196024132594
0.7928789701916066
0.795462154692514
0.8045201422938492
0.8198912611886323
0.796609754494916
0.7982700450788018
0.7946590288544056
0.7852923599316307
0.8051713419662395
0.8193571101110289
0.7950458680982033
0.8185262079267208
0.7840327243713097
0.8074730872387442
0.7850485640151842
0.8152982169051899
0.8061434738685971
0.8179279203525138
0.8091708517174491
0.8150204639728209
0.7916505596629793
0.8070990126238755
0.8107608724249413
0.8064955268041705
0.8192211431712673
0.7844167060894098
0.7943167553444636
0.8094452572863083
0.8173985274912402
0.8182186604748577
0.7857481920953064
0.7897989281425285
0.7879725212630413
0.795643278731669
0.7802452353851238
0.8082735896378123
0.7920666021164838
0.7829486043091902
0.7846160085536563
0.8114680466054556
0.8154119866467351
0.7927159498755797
0.8082062794401358
0.7816553416924659
0.8040301381859162
0.7808118915286058
0.7926726266968963
0.7863583971040882
0.8153154646872878
0.8057440275135568
0.7971808860012528
0.8029577356133408
0.7882228472040383
0.7839473931426699
0.8049681178906954
0.8107201619232152
0.8092678499299835
0.8104719579425
0.8044069838208755
0.8001602845639657
0.8038277662418107
0.8114248689709604
0.8028521011942403
0.8078242024753264
0.8098726505877188
0.8039230180162965
0.8185279356882003
0.7984665429287825
0.8085310599448968
0.7905257817813198
0.7809428761953668
0.81060253745675
0.7866377396553882
0.7860719827397193
0.8094251194437236
0.789748720937271
0.8163832561460799
0.7908134039730935
0.8197417223485921
0.8013958353622739
0.8104086865766538
0.8157739239307369
0.8190155474662268
0.80242709868324
0.8060770557931694
0.7832642644169014
0.8051206333424439
0.8090423004652436
0.7995645359550303
0.8057134961582
0.7803737779705333
0.8108479364352958
0.8039072009770935
0.7846164723924828
0.7806879088048104
0.8176515012939158
0.797200586240945
0.7845978435549438
0.808101510219104
0.7925499321047663
0.811324417826538
0.8153864626065809
0.8052264883329409
0.7986151012404102
0.8190134638182538
0.7916093187304281
0.8117027599326281
0.7926039545588173
0.812968113373135
0.78629948219001
0.8140275206472242
0.7829161086820511
0.7867460697804514
0.7941351167734442
0.804374938552365
0.8019605385637404
0.7990411229497496
0.7927197875847747
0.8018383230864106
0.8127299412841741
0.8124592888819255
0.8146298306390962
0.8188784164356366
0.7905511753152905
0.7853157547229388
0.801905034650567
0.7955585749006368
0.7893492292111712
0.8162170355986191
0.7842991264863697
0.7809854365059038
0.7881069742497826
0.7952719209390721
0.7969145346798336
0.7945273820842502
0.7812384734747941
0.8185522209645639
0.8015179647043674
0.8063815097766138
0.8111258542052937
0.801495323925533
0.7841866676929704
0.780348031673926
0.7975744313455518
0.79036105997415
0.7859965516349945
0.8026991006994786
0.7844165606956885
0.7914673502140079
0.7922032959954017
0.8150957814906946
0.7848821043520156
0.8085455230817207
0.7915240019019307
0.8051561071261362
0.8011923043254368
0.7855290434544588
0.8174084760586205
0.7868682976346268
0.7911725511311565
0.7827942880229398
0.8077123948231505
0.7807381124207373
0.783539433268172
0.7896075137152847
0.805702117743393
0.7865993494006868
0.8111266528001454
0.8137365523895745
0.8054974745789373
0.7808077327436835
0.7935718014905098
0.7889116896414791
0.7984163040420389
0.7982654208235231
0.8158620461118089
0.7980757940010961
0.8090949428492659
0.8127764093848354
0.8091029883174601
0.796080814034712
0.8065934876123326
0.8005310230936611
0.7810683492427224
0.8067741297561984
0.8143905983743788
0.7809420656603645
0.7883814132907981
0.8150628685819292
0.8198717057468482
0.7897633096751493
0.7815200706754339
0.7810337725686278
0.7863796674179534
0.8098886490466385
0.780159504067315
0.804914812131565
0.8064860210555638
0.8004266944236835
0.7834611329138529
0.7923843270363871
0.8132416770180337
0.7995760557034244
0.782139584192026
0.8149472717800319
0.8055015479391657
0.808637618010412
0.7876793040995242
0.8059892858549723
0.8099415702484074
0.7984395244696788
0.80868337468694
0.8157099790603753
0.808162041886934
0.8023290519894498
0.7971059966759773
0.7819934267085689
0.7893588266323959
0.780386306576893
0.8023016966111285
0.8150802697386982
0.7824277845777323
0.8094273094894471
0.7938879052877348
0.7818087701420464
0.790948164426519
0.7922845364331239
0.8058993679140405
0.789003571040987
0.7813011954032398
0.8085158997010328
0.7941396584527818
0.7962652253490774
0.8068295218179048
0.8156463146229003
0.7923494756699886
0.7834723906222849
0.7959716541288864
0.8122548956309723
0.7842579126010008
0.8031691496657227
0.8101551229598872
0.8177783619830064
0.8149110278582681
0.783364548588822
0.7996693934336767
0.819852143785596
0.8002272871516241
0.7960771505969851
0.8074893817013277
0.7936586825954548
0.793976767459527
0.7813303348471901
0.8012014955770297
0.8136153887293822
0.7979892119532428
0.8161867657315938
0.7836414928229447
0.8166309146565729
0.8164632651703397
0.8068832337304362
0.7992495694714766
0.806587961828463
0.784754838390804
0.7823020372569771
0.812838170431575
0.808530045966452
0.8036336133757709
0.7985088402612788
0.808245418779387
0.7898503233317594
0.7873612261001197
0.8120976528996051
0.8133555252241752
0.8013900460647299
0.7856066471590141
0.8072747961655402
0.7914102333339424
0.7981003004825515
0.8067520718007235
0.7955192834959528
0.7904487969877158
0.8069858596298304
0.7997616297353011
0.8052356096924181
0.8080335529762971
0.7893053809976065
0.8086588797489025
0.8123110895019776
0.8110273385628026
0.8089883029461523
0.8136327214045671
0.8095730635895482
0.8132063972208867
0.7801516856948915
0.8148930688644853
0.8033598695434924
0.8177714380730766
0.7959334444856314
0.7851269790950243
0.7949014217568015
0.8145936868896664
0.8194032283456808
0.7902302254322178
0.7957893018855213
0.812721672387986
0.8034713212762847
0.7848560227093759
0.7843806917791922
0.7852688203844582
0.81207031895051
0.7884523251504951
0.8175029840939991
0.8157705936218498
0.7904270593869183
0.7942544007661316
0.7928839401005902
0.790725906767286
0.803916436302337
0.8041629334876876
0.7970368898837916
0.8163649699456275
0.8036203031009425
0.809755400363583
0.7803989519267569
0.8199950582599436
0.8076485502001425
0.7813598676706517
0.8191589163665266
0.7916784534101191
0.7937944964405073
0.8008091428072517
0.794538488880457
0.7966508433749298
0.7971795678085218
0.7886377225826897
0.7952886257997271
0.7892654408189845
0.7837802049839899
0.7965399776222332
0.8183293206407406
0.7858578243546214
0.7837852104949004
0.8189206177626547
0.8039783947859157
0.818828778611624
0.7856641556284398
0.7809088203747845
0.8104218920617017
0.788477783102779
0.8107558618275751
0.7810377102063256
0.8191807728600384
0.80040267422522
0.8007241131825175
0.8183159520784874
0.7881470372329114
0.7888136797522447
0.782191993059079
0.787148412505865
0.8058534909884549
0.786237248777113
0.7916999799054427
0.7821474791098724
0.797216615230622
0.8104349724963108
0.7834168083824905
0.8183934248344372
0.7918360890503056
0.8142936483355425
0.7983961092631223
0.8196545147985733
0.7992163822134167
0.8109672825110477
0.7958827907881064
0.7934160145729773
0.8057463369660129
0.8064697460198809
0.8088544111451688
0.8039356596174583
0.8110674542422465
0.7822073671611884
0.8008707443789171
0.785564474902455
0.7918114634316488
0.7898982571816988
0.8190872795451261
0.7971130480580819
0.8040580014129523
0.8031816336899124
0.790867810194255
0.7845044897169012
0.8184438403281524
0.7947971959865082
0.7859481661043755
0.8111143545331833
0.8170566662669463
0.7995983553090468
0.8193757121847928
0.7853749337220272
0.7958473749656415
0.7884713808984739
0.8105036930926819
0.8027810890923658
0.8027561458578935
0.7900940731824384
0.8118787954149512
0.8139444540571007
0.7994429378889878
0.8003878263482597
0.8012403892832951
0.8022059072914234
0.80967121303866
0.810009535817109
0.7995926399076596
0.7837248737729492
0.7894833794486195
0.802182824503051
0.7980222564424932
0.8154430328724847
0.7999570374257017
0.8024199102888427
0.7970830778126214
0.7832537433705103
0.7826362767547421
0.7811156476693516
0.7927094637220079
0.8093579571203199
0.8150671580756818
0.8002640137243905
0.8061110183802354
0.7984473384479587
0.8061499441357809
0.7970705777779258
0.8181013025622683
0.7995001328894584
0.7961366056181969
0.7975967742751936
0.7969315364987399
0.7868456743259571
0.8186146815769708
0.7870846126781252
0.8005553725817172
0.7967954314283778
0.8137905294540022
0.7826092294677974
0.7839884765709733
0.8167171204669881
0.7898200921664177
0.7944156257471671
0.7851719634506672
0.7998374536126134
0.8119074976584355
0.815477214856688
0.7930535315772844
0.8051640649964671
0.7833458455411999
0.8093235737802996
0.790858138443684
0.8156812875873953
0.80433574950282
0.8112540032785435
0.803858271081349
0.8039706170036436
0.7842172249291488
0.8189128259222683
0.8147446448342969
0.8151901652404006
0.8039506641342231
0.8003237990526373
0.7812252457347865
0.8105754830533184
0.801221783217605
0.8183536841789794
0.8040267860728514
0.8110264525726127
0.8073558647041421
0.8144509994521825
0.8122726907016936
0.796211941473256
0.7947745846778026
0.7833610832244924
0.8109858093656455
0.8137479389354358
0.803550690104552
0.7825430077275846
0.8161459404152775
0.7904719529955648
0.7889066764249414
0.8031063719772671
0.7883836118829932
0.8063222849704692
0.8037943524319147
0.798827895278453
0.7995412740479234
0.8068776491997928
0.7841654531606835
0.7867621720111398
0.8077242817814866
0.8173732952187279
0.8049984137402711
0.8117897356066707
0.7920615512743405
0.8005357683219722
0.8144735104235958
0.8065957686634653
0.810954472557939
0.8175035669851156
0.8050395778547433
0.8154973496383013
0.7958959421922593
0.8155097194367198
0.7856229013587992
0.8064112498238085
0.8049212077907746
0.7938189196036753
0.7933530369682614
0.8166496424353475
0.8182420915323766
0.7953413022759447
0.8126309930955409
0.8006540906632028
0.7902920737971967
0.8098328563560263
0.7833390046594199
0.786218253814962
0.8066989724034909
0.8042775592423231
0.7926668652105078
0.8116570054592511
0.8144151431163111
0.8133523514705429
0.8128786598178745
0.7823089503776371
0.8027421779347587
0.7851023256901222
0.7973730141734089
0.8038785117830157
0.8068745826352446
0.7931828678054778
0.7932081400576982
0.8042070861799108
0.79831567018951
0.7831524363604683
0.8125796648853041
0.7942388723655427
0.8151322706166579
0.7894454002588853
0.8168389178239635
0.8077459894496148
0.7967778575880236
0.8000093614245339
0.8070796952827018
0.7996893501008615
0.7858042437949213
0.8001141532109867
0.7994370085096703
0.7838997077251987
0.7978673999699161
0.7861507725670718
0.7874236796080101
0.8112359827517442
0.7998986252931263
0.7944002399316156
0.8100939780950147
0.7982426232638034
0.7868282558107131
0.7827566924072884
0.8035022784812643
0.7937939243208398
0.795133351594201
0.7931409752932778
0.7994082285749488
0.7948603339384026
0.7876790099686272
0.783505544701125
0.7997753348590008
0.8147771956912397
0.7952879891617455
0.7808195878813735
0.804784632738615
0.7936278044585917
0.7967912178995208
0.8161376650993979
0.7878261400898499
0.7956845546449476
0.7933366238701496
0.7883267870397166
0.7924014118300646
0.8179139733681651
0.8195006655722625
0.78649253699026
0.7962857455076342
0.8001414186369218
0.8036098102453261
0.8032046815812864
0.8008717117734034
0.8149695417402795
0.788557868874805
0.7844128704090001
0.81407795604525
0.7823149070416275
0.8128487227836243
0.7845535513767092
0.8021144886348779
0.8128211844035191
0.8159865760785763
0.816191084919694
0.7873583111881239
0.79257165424981
0.8134694526022651
0.8093583785529499
0.7829839436908657
0.785447164433712
0.7917234068524641
0.8142606384842818
0.7853858804773699
0.794886367164067
0.8051241471107308
0.788628374939618
0.8066822369224903
0.7933371177412416
0.7849990035513811
0.8012728759021357
0.7861321150518736
0.7952948794080023
0.8035608653248741
0.8000822027652492
0.8038788398874577
0.8199701030476436
0.7912004563241022
0.7819548144298507
0.8039307699442482
0.8027707674806717
0.8101311508480133
0.789090460294399
0.7867387469065246
0.7906032467249089
0.8029758292674655
0.8092363242329788
0.8030174068213008
0.8019791925827973
0.816827334766167
0.7948433537880901
0.7956152264553148
0.8169736214016972
0.8057610283444774
0.8151162429520602
0.817998519140974
0.7975236929546597
0.7989860460096103
0.8007608480543806
0.8140203470069933
0.7905043692347877
0.7947911483835054
0.7925794487289307
0.8155773066949543
0.7850737206000766
0.7998994286609578
0.7959136672032151
0.7846096554023907
0.8098044985587384
0.7930325209379717
0.8176924589259491
0.7896432578507826
0.7877300214404832
0.792211005091245
0.8021724290317309
0.7889198877563895
0.7953787147808887
0.7887875684370522
0.8143910035305179
0.8135880445634581
0.8111535708116514
0.7982980090883978
0.8056855480030889
0.8073232203958883
0.8090227399889489
0.7917294621866692
0.8135700349575801
0.7839906707247442
0.7982668257537954
0.8170378477832062
0.7802789456166581
0.801765382780918
0.8180752278610852
0.8096101931540453
0.8032113917146892
0.8122032155974142
0.7939792317044748
0.8156582028415857
0.8096546389853205
0.7968547315188667
0.7935219456427374
0.8076671511127417
0.790301586431897
0.7826126679740781
0.8058391609842993
0.7860314313526121
0.8198797846557944
0.8164232487453389
0.8007481765376374
0.812880048441678
0.7847464346800843
0.7823229134956291
0.7828975111048475
0.8181917349924241
0.7910744210297325
0.7960346661304227
0.8019128651456389
0.7800002749474226
0.7894808461666933
0.7917668523100567
0.7953994302137433
0.8010590864086139
0.7931071120617191
0.7976343272539494
0.7838222283042525
0.8115840638389059
0.8028988234648275
0.8133885952277493
0.8048030521865254
0.8173903232049247
0.800798013627777
0.7965964346968175
0.8133259570615756
0.801452650974674
0.7956320813788638
0.8161622082208572
0.8158004288808421
0.8111620233267773
0.7816467902550485
0.7955237902218245
0.7819579674123547
0.8055996748894301
0.8148636410646481
0.8182418965752027
0.7946061943406526
0.804487751048049
0.7832019240908787
0.8069194578692708
0.7926411900942584
0.8096552934409839
0.8071032597941863
0.7886119075768117
0.7807274012225944
0.7898008064002705
0.7930850129845235
0.7821857119416151
0.791615661361336
0.8159448320105749
0.8078205386163071
0.7936152248563295
0.8109588936421517
0.8114029607233082
0.8173507481374277
0.7811612293181045
0.8001217310544438
0.8153552931654027
0.7889818806963106
0.7899138275626328
0.809841062160147
0.7944595704571846
0.8166117808164888
0.8064836711072653
0.7983625813557521
0.7916754027226043
0.7959980465866429
0.7994827427387
0.8168668325341191
0.7903633234587003
0.7854820988386457
0.7828105370145272
0.7884269784901142
0.7857448494315935
0.7880005498425133
0.7899822492542536
0.7854803586174732
0.7802434551709556
0.7830149465067782
0.8041808264828014
0.7991840177513301
0.8170297557902446
0.8144484148435933
0.7812950328770408
0.7984369962338578
0.7911585199758526
0.8050046425275543
0.8168797437922869
0.8094399747216816
0.7871856329142132
0.7991437468383346
0.7999528564648082
0.8005386577006404
0.8167046588318785
0.7983331967045963
0.7818207289374752
0.783932442396389
0.7949415885234872
0.8091326692533687
0.8020732283038507
0.8144917119241907
0.8063123680314297
0.7942123338222302
0.804031989637529
0.7818517880704274
0.8059814926475959
0.7861680964053848
0.7866313705558243
0.7931240591166994
0.799851809642685
0.8136144218831041
0.8068401788869364
0.7879811258701275
0.7992230147138817
0.8171716342955908
0.8153841139828975
0.7809699976572817
0.810102593122577
0.8000621380603297
0.8047157078182704
0.8189531366240611
0.7979974545532031
0.7836323769151329
0.8187170512727164
0.8176688366921241
0.79484285324365
0.8119716871691423
0.8026239981933067
0.7942439436776044
0.8041706741559762
0.7828250128082477
0.8016528959419784
0.8137252340891097
0.8161482073498912
0.8005486555940933
0.8007443469357918
0.814763641278879
0.811509589777934
0.7994084845165028
0.7962753379940565
0.8172654661038543
0.8134255919632892
0.8131065500226354
0.7819687279545363
0.8116982102999093
0.8044427931241092
0.788153428449331
0.8021468812776844
0.7829541558931394
0.8105996144686656
0.8048938773360682
0.8115190119792289
0.7996387070581072
0.791615161696877
0.7806758807244487
0.79901806575004
0.8052451130343459
0.8013393675608836
0.7844204019529041
0.79427050179772
0.8144634037718819
0.7997752963509397
0.7988269759102657
0.8193660146645507
0.7903171757198417
0.784881221401102
0.7994358907930679
0.8182351523986072
0.808410188500919
0.8044366464066947
0.8011920172803647
0.8023390773329584
0.7864607569433708
0.8184227504432738
0.7806964103328912
0.7830039493358854
0.8198508311556609
0.8159544342658437
0.8011728791996868
0.807976845131078
0.8170199544344257
0.8086442724413407
0.8143843450959931
0.8041955451080554
0.8136603974872245
0.8037332846030802
0.7882507815739839
0.8178155211202701
0.8150365675659506
0.8003719067695452
0.7928346543216699
0.8092630341641115
0.790744694655882
0.791100225793392
0.7996669939555332
0.8176818859557665
0.7869094871774753
0.7908692833931833
0.7847393038841843
0.8172931999153438
0.7970183555202444
0.7885435682290035
0.7805837019482389
0.8166433940154862
0.8197751429961979
0.8194969265444961
0.8166840049118067
0.8147113553154839
0.7996534560663324
0.7860910617651327
0.8174924057477088
0.8187976796374957
0.8119091825428764
0.7858172382482618
0.7944568400964223
0.7936488540705255
0.8158536062368728
0.8095921855961149
0.8119653332411123
0.8112169272745517
0.7920494316621297
0.7844624240644122
0.7990468561527989
0.814135325671499
0.7909224700834534
0.79702507033432
0.7945666033596409
0.7879843779401122
0.7815388300673801
0.8018822165739188
0.7984260619994761
0.8017504160164602
0.7914175709639579
0.8053050638675018
0.7927294523868313
0.7845777419803692
0.7902340387132405
0.7865732168270712
0.8002610496494486
0.7917241162516497
0.8040496436930777
0.7888541910962319
0.8149265550885181
0.8030844459022319
0.8099290563532833
0.8047616870451466
0.8026901009653911
0.7846452095698639
0.7948982648702333
0.7818808181508986
0.8060622966861699
0.7926205353289133
0.7853606863085196
0.7986489276933656
0.7991562286570413
0.7814891186090058
0.7883759733325931
0.8053842871927852
0.8065074281575508
0.7971651816326658
0.8137953394596844
0.8063501937452947
0.7855195635085872
0.7892670381294642
0.8016303876871843
0.8136026960409424
0.7828338844490942
0.7896905109332766
0.8191103361566477
0.7874859303546543
0.7996688831177311
0.7928693376225286
0.8186457720973355
0.819066825247099
0.7863754638615523
0.8122172343737977
0.7844400563982016
0.7923651479881643
0.7813608407214789
0.7927575706948534
0.7934299244159717
0.7943985371453562
0.8126715426572351
0.7830756575076994
0.790618287757496
0.8172276540784197
0.7862179601491239
0.7800599667413886
0.817542953452691
0.8090083002222084
0.8011950545534408
0.8085101012556207
0.8063754957774807
0.7889425355427679
0.8010459537396781
0.8103542553882666
0.8159381907559307
0.7995501263997447
0.7954758039112166
0.8118716434099883
0.7878347715164827
0.796392717322391
0.7802813489228148
0.789897072090628
0.812094056523426
0.7883299803338609
0.8130477784527649
0.7901793952011247
0.8017634901195598
0.7869304911411685
0.8059558353295948
0.8070038302904621
0.80732399385831
0.7901229243612521
0.8189552187574984
0.7844298722511103
0.8162992451975892
0.8035261430728615
0.8175087224624902
0.801921362052322
0.8057791708854125
0.8105149106825369
0.7922893292581568
0.7881361159903797
0.7868327396386169
0.792968905033425
0.8178192896883552
0.8116545103464278
0.7925763515175421
0.803692072593073
0.8157185791720922
0.8060771219243296
0.7871943557724985
0.8052785046629263
0.7844021466505643
0.7820152345762793
0.8049719516900535
0.7927634469871006
0.7801295518244244
0.8031240867618996
0.7972737145194526
0.8087924725416266
0.7913510000305846
0.8077880733340466
0.8069949101870324
0.8164684680658855
0.8172845214882773
0.8028028349404336
0.7844453446733732
0.8187329760448524
0.8102040000582532
0.8056228607761383
0.8139163176616997
0.8145405816752976
0.790836317559264
0.8085817580250623